ITEM: TIMESTEP
0
ITEM: NUMBER OF ATOMS
1000
ITEM: BOX BOUNDS pp pp pp
0.000000 4.000000
0.000000 6.000000
0.000000 0.400000
ITEM: ATOMS id type x y z tx ty tz
1 1 3.360751 2.366298 0.200000 1.990000 1.000000 0.200000
2 2 3.132397 4.790640 0.200000 1.980000 4.000000 0.200000
3 1 3.646589 1.185308 0.200000 1.990000 1.000000 0.200000
4 3 1.111099 3.323820 0.200000 2.000000 4.020000 0.200000
5 3 1.909588 3.773226 0.200000 2.000000 4.020000 0.200000
6 3 1.459138 3.080405 0.200000 2.000000 4.020000 0.200000
7 2 3.808919 5.497170 0.200000 1.980000 4.000000 0.200000
8 2 2.542847 4.303782 0.200000 1.980000 4.000000 0.200000
9 3 0.566410 3.641813 0.200000 2.000000 4.020000 0.200000
10 4 0.065202 1.457321 0.200000 1.010000 2.000000 0.200000
11 5 0.626716 2.405666 0.200000 1.010000 1.000000 0.200000
12 4 0.519162 0.652853 0.200000 1.010000 2.000000 0.200000
13 1 3.995698 1.309541 0.200000 1.990000 1.000000 0.200000
14 2 2.051730 5.034673 0.200000 1.980000 4.000000 0.200000
15 6 2.450559 1.776190 0.200000 1.990000 2.000000 0.200000
16 7 2.550209 3.145723 0.200000 1.000000 1.990000 0.200000
17 2 2.106980 4.619483 0.200000 1.980000 4.000000 0.200000
18 7 1.133259 2.114750 0.200000 1.000000 1.990000 0.200000
19 2 3.230898 5.514159 0.200000 1.980000 4.000000 0.200000
20 8 2.103981 0.516335 0.200000 1.000000 1.010000 0.200000
21 3 0.768855 3.979362 0.200000 2.000000 4.020000 0.200000
22 1 3.560930 2.093358 0.200000 1.990000 1.000000 0.200000
23 9 0.256685 0.120138 0.200000 2.000000 1.010000 0.200000
24 9 1.830807 0.378575 0.200000 2.000000 1.010000 0.200000
25 2 3.608832 5.105519 0.200000 1.980000 4.000000 0.200000
26 3 1.066663 3.238562 0.200000 2.000000 4.020000 0.200000
27 2 2.050141 4.006343 0.200000 1.980000 4.000000 0.200000
28 8 2.126426 0.235682 0.200000 1.000000 1.010000 0.200000
29 2 3.723239 4.325714 0.200000 1.980000 4.000000 0.200000
30 1 2.559915 2.124292 0.200000 1.990000 1.000000 0.200000
31 6 2.751446 0.995845 0.200000 1.990000 2.000000 0.200000
32 6 3.316804 1.982023 0.200000 1.990000 2.000000 0.200000
33 1 3.825873 3.531841 0.200000 1.990000 1.000000 0.200000
34 2 2.629216 5.152058 0.200000 1.980000 4.000000 0.200000
35 2 2.736874 5.465832 0.200000 1.980000 4.000000 0.200000
36 1 2.564322 2.591721 0.200000 1.990000 1.000000 0.200000
37 6 2.478386 1.686356 0.200000 1.990000 2.000000 0.200000
38 6 3.144008 1.844747 0.200000 1.990000 2.000000 0.200000
39 4 0.750132 1.657408 0.200000 1.010000 2.000000 0.200000
40 7 2.225775 2.499008 0.200000 1.000000 1.990000 0.200000
41 4 0.412685 0.756452 0.200000 1.010000 2.000000 0.200000
42 2 3.939007 5.610024 0.200000 1.980000 4.000000 0.200000
43 1 2.737780 2.299130 0.200000 1.990000 1.000000 0.200000
44 1 2.999084 2.211981 0.200000 1.990000 1.000000 0.200000
45 1 2.337954 1.466476 0.200000 1.990000 1.000000 0.200000
46 3 0.210117 3.129380 0.200000 2.000000 4.020000 0.200000
47 5 0.704843 1.440374 0.200000 1.010000 1.000000 0.200000
48 2 3.191192 4.395926 0.200000 1.980000 4.000000 0.200000
49 2 2.626255 5.804431 0.200000 1.980000 4.000000 0.200000
50 2 2.557833 4.558409 0.200000 1.980000 4.000000 0.200000
51 4 0.373922 0.809414 0.200000 1.010000 2.000000 0.200000
52 8 2.080840 0.469393 0.200000 1.000000 1.010000 0.200000
53 5 0.279626 1.227931 0.200000 1.010000 1.000000 0.200000
54 2 2.293275 4.533485 0.200000 1.980000 4.000000 0.200000
55 4 0.207755 0.946843 0.200000 1.010000 2.000000 0.200000
56 1 3.999974 1.225972 0.200000 1.990000 1.000000 0.200000
57 6 3.559823 0.752811 0.200000 1.990000 2.000000 0.200000
58 6 3.991196 0.324345 0.200000 1.990000 2.000000 0.200000
59 6 3.482159 0.433973 0.200000 1.990000 2.000000 0.200000
60 1 2.375569 1.082234 0.200000 1.990000 1.000000 0.200000
61 5 0.652526 2.350141 0.200000 1.010000 1.000000 0.200000
62 2 3.652107 4.918171 0.200000 1.980000 4.000000 0.200000
63 3 1.436381 3.314910 0.200000 2.000000 4.020000 0.200000
64 7 2.317720 2.715455 0.200000 1.000000 1.990000 0.200000
65 6 2.749550 0.597840 0.200000 1.990000 2.000000 0.200000
66 2 2.123232 4.543763 0.200000 1.980000 4.000000 0.200000
67 2 2.307884 5.265683 0.200000 1.980000 4.000000 0.200000
68 7 2.991237 3.773460 0.200000 1.000000 1.990000 0.200000
69 2 3.332954 5.552259 0.200000 1.980000 4.000000 0.200000
70 2 3.493085 4.986225 0.200000 1.980000 4.000000 0.200000
71 2 3.917737 4.462867 0.200000 1.980000 4.000000 0.200000
72 2 3.613465 5.901574 0.200000 1.980000 4.000000 0.200000
73 7 2.667521 2.983551 0.200000 1.000000 1.990000 0.200000
74 6 3.555795 0.461968 0.200000 1.990000 2.000000 0.200000
75 1 2.598828 1.488265 0.200000 1.990000 1.000000 0.200000
76 1 2.517919 1.374822 0.200000 1.990000 1.000000 0.200000
77 6 2.802480 1.901203 0.200000 1.990000 2.000000 0.200000
78 3 0.296644 3.798433 0.200000 2.000000 4.020000 0.200000
79 3 0.894626 3.906792 0.200000 2.000000 4.020000 0.200000
80 2 2.042744 5.828794 0.200000 1.980000 4.000000 0.200000
81 3 1.120168 3.276641 0.200000 2.000000 4.020000 0.200000
82 6 2.877074 0.679683 0.200000 1.990000 2.000000 0.200000
83 3 1.885934 3.555240 0.200000 2.000000 4.020000 0.200000
84 1 3.777272 2.705505 0.200000 1.990000 1.000000 0.200000
85 9 1.738053 0.019389 0.200000 2.000000 1.010000 0.200000
86 3 1.379772 3.590888 0.200000 2.000000 4.020000 0.200000
87 1 3.332973 1.403350 0.200000 1.990000 1.000000 0.200000
88 7 2.701904 2.897702 0.200000 1.000000 1.990000 0.200000
89 1 2.848349 1.095335 0.200000 1.990000 1.000000 0.200000
90 8 2.487291 0.245186 0.200000 1.000000 1.010000 0.200000
91 7 2.695746 3.825841 0.200000 1.000000 1.990000 0.200000
92 7 2.436423 3.762947 0.200000 1.000000 1.990000 0.200000
93 6 2.922917 1.970247 0.200000 1.990000 2.000000 0.200000
94 1 2.961754 1.213277 0.200000 1.990000 1.000000 0.200000
95 2 3.683657 4.108539 0.200000 1.980000 4.000000 0.200000
96 6 2.612521 1.543593 0.200000 1.990000 2.000000 0.200000
97 5 0.445103 2.169605 0.200000 1.010000 1.000000 0.200000
98 7 2.306762 3.559269 0.200000 1.000000 1.990000 0.200000
99 6 2.666226 1.732667 0.200000 1.990000 2.000000 0.200000
100 6 3.103069 1.730276 0.200000 1.990000 2.000000 0.200000
101 6 3.937453 0.021471 0.200000 1.990000 2.000000 0.200000
102 10 0.752804 2.618982 0.200000 2.000000 1.990000 0.200000
103 2 3.059486 4.194452 0.200000 1.980000 4.000000 0.200000
104 1 3.447668 1.221289 0.200000 1.990000 1.000000 0.200000
105 7 3.174627 3.288252 0.200000 1.000000 1.990000 0.200000
106 2 3.638572 5.243874 0.200000 1.980000 4.000000 0.200000
107 3 1.992576 3.457197 0.200000 2.000000 4.020000 0.200000
108 4 0.651027 1.643467 0.200000 1.010000 2.000000 0.200000
109 1 3.458316 2.954393 0.200000 1.990000 1.000000 0.200000
110 6 2.910201 0.834349 0.200000 1.990000 2.000000 0.200000
111 7 2.412435 2.954530 0.200000 1.000000 1.990000 0.200000
112 2 3.352534 4.345512 0.200000 1.980000 4.000000 0.200000
113 5 0.712830 1.331793 0.200000 1.010000 1.000000 0.200000
114 9 1.994102 0.727553 0.200000 2.000000 1.010000 0.200000
115 5 0.552954 2.162656 0.200000 1.010000 1.000000 0.200000
116 7 3.633939 3.732573 0.200000 1.000000 1.990000 0.200000
117 2 3.347311 4.908766 0.200000 1.980000 4.000000 0.200000
118 10 1.984298 2.009830 0.200000 2.000000 1.990000 0.200000
119 3 1.577309 3.952987 0.200000 2.000000 4.020000 0.200000
120 6 2.435531 1.553437 0.200000 1.990000 2.000000 0.200000
121 9 0.604920 0.435270 0.200000 2.000000 1.010000 0.200000
122 3 0.431393 3.883244 0.200000 2.000000 4.020000 0.200000
123 8 1.325543 0.546891 0.200000 1.000000 1.010000 0.200000
124 6 2.334281 1.592768 0.200000 1.990000 2.000000 0.200000
125 2 2.634987 4.570667 0.200000 1.980000 4.000000 0.200000
126 9 1.949707 0.943633 0.200000 2.000000 1.010000 0.200000
127 7 3.532146 3.753992 0.200000 1.000000 1.990000 0.200000
128 1 2.070859 1.247062 0.200000 1.990000 1.000000 0.200000
129 7 2.230242 2.557196 0.200000 1.000000 1.990000 0.200000
130 1 3.319756 2.366330 0.200000 1.990000 1.000000 0.200000
131 4 0.977308 1.956081 0.200000 1.010000 2.000000 0.200000
132 7 2.917440 3.831925 0.200000 1.000000 1.990000 0.200000
133 1 3.939379 2.029458 0.200000 1.990000 1.000000 0.200000
134 6 3.590241 0.816448 0.200000 1.990000 2.000000 0.200000
135 9 1.643152 0.032451 0.200000 2.000000 1.010000 0.200000
136 2 3.133128 4.646317 0.200000 1.980000 4.000000 0.200000
137 8 1.174712 0.688007 0.200000 1.000000 1.010000 0.200000
138 2 3.462139 4.326035 0.200000 1.980000 4.000000 0.200000
139 5 0.196650 2.694631 0.200000 1.010000 1.000000 0.200000
140 2 3.945868 4.247455 0.200000 1.980000 4.000000 0.200000
141 10 0.843532 2.843364 0.200000 2.000000 1.990000 0.200000
142 6 3.460725 0.563517 0.200000 1.990000 2.000000 0.200000
143 5 0.398237 2.297376 0.200000 1.010000 1.000000 0.200000
144 3 1.207052 3.942719 0.200000 2.000000 4.020000 0.200000
145 6 3.236381 0.790213 0.200000 1.990000 2.000000 0.200000
146 4 0.206033 0.320534 0.200000 1.010000 2.000000 0.200000
147 1 2.768306 2.655361 0.200000 1.990000 1.000000 0.200000
148 3 0.476445 3.537820 0.200000 2.000000 4.020000 0.200000
149 7 2.314539 3.179395 0.200000 1.000000 1.990000 0.200000
150 1 2.380181 2.171501 0.200000 1.990000 1.000000 0.200000
151 7 2.438916 3.154483 0.200000 1.000000 1.990000 0.200000
152 7 2.475702 3.577177 0.200000 1.000000 1.990000 0.200000
153 4 0.280361 0.593025 0.200000 1.010000 2.000000 0.200000
154 1 3.694911 1.017897 0.200000 1.990000 1.000000 0.200000
155 6 3.307078 1.744972 0.200000 1.990000 2.000000 0.200000
156 8 2.636584 0.217964 0.200000 1.000000 1.010000 0.200000
157 2 2.503856 5.016622 0.200000 1.980000 4.000000 0.200000
158 3 0.792082 3.674652 0.200000 2.000000 4.020000 0.200000
159 2 3.129049 4.316771 0.200000 1.980000 4.000000 0.200000
160 10 0.801409 2.407126 0.200000 2.000000 1.990000 0.200000
161 7 1.262632 2.604051 0.200000 1.000000 1.990000 0.200000
162 10 0.923984 2.314489 0.200000 2.000000 1.990000 0.200000
163 6 2.131384 0.928343 0.200000 1.990000 2.000000 0.200000
164 8 2.221591 0.087476 0.200000 1.000000 1.010000 0.200000
165 10 1.520859 2.293003 0.200000 2.000000 1.990000 0.200000
166 3 1.041779 3.897954 0.200000 2.000000 4.020000 0.200000
167 2 2.209266 5.517545 0.200000 1.980000 4.000000 0.200000
168 2 2.743945 4.858712 0.200000 1.980000 4.000000 0.200000
169 8 2.583556 0.036029 0.200000 1.000000 1.010000 0.200000
170 2 2.131839 5.063458 0.200000 1.980000 4.000000 0.200000
171 7 2.473787 3.856155 0.200000 1.000000 1.990000 0.200000
172 7 2.074060 2.404254 0.200000 1.000000 1.990000 0.200000
173 2 3.207587 4.066874 0.200000 1.980000 4.000000 0.200000
174 9 0.611503 0.197356 0.200000 2.000000 1.010000 0.200000
175 3 0.750466 3.713750 0.200000 2.000000 4.020000 0.200000
176 7 2.801205 3.406987 0.200000 1.000000 1.990000 0.200000
177 4 0.004502 0.034255 0.200000 1.010000 2.000000 0.200000
178 5 0.724645 2.048127 0.200000 1.010000 1.000000 0.200000
179 2 2.669362 5.274057 0.200000 1.980000 4.000000 0.200000
180 6 2.613220 1.879377 0.200000 1.990000 2.000000 0.200000
181 1 3.540057 1.117589 0.200000 1.990000 1.000000 0.200000
182 3 0.628557 3.020766 0.200000 2.000000 4.020000 0.200000
183 2 3.315829 4.053924 0.200000 1.980000 4.000000 0.200000
184 1 3.616680 1.146670 0.200000 1.990000 1.000000 0.200000
185 1 3.475696 3.284383 0.200000 1.990000 1.000000 0.200000
186 2 2.955838 5.594908 0.200000 1.980000 4.000000 0.200000
187 2 2.205772 5.600520 0.200000 1.980000 4.000000 0.200000
188 3 1.977628 3.315410 0.200000 2.000000 4.020000 0.200000
189 2 3.756517 4.797874 0.200000 1.980000 4.000000 0.200000
190 7 3.256555 3.566984 0.200000 1.000000 1.990000 0.200000
191 2 2.628804 5.971800 0.200000 1.980000 4.000000 0.200000
192 6 3.743407 1.947249 0.200000 1.990000 2.000000 0.200000
193 1 3.497238 3.534940 0.200000 1.990000 1.000000 0.200000
194 3 1.051138 3.626273 0.200000 2.000000 4.020000 0.200000
195 2 3.181962 5.190513 0.200000 1.980000 4.000000 0.200000
196 7 3.492085 3.986486 0.200000 1.000000 1.990000 0.200000
197 3 1.649930 3.671884 0.200000 2.000000 4.020000 0.200000
198 7 2.387596 3.873609 0.200000 1.000000 1.990000 0.200000
199 6 2.154226 0.890052 0.200000 1.990000 2.000000 0.200000
200 8 2.316086 0.197780 0.200000 1.000000 1.010000 0.200000
201 7 2.803641 3.108904 0.200000 1.000000 1.990000 0.200000
202 1 3.330436 3.090294 0.200000 1.990000 1.000000 0.200000
203 3 0.450592 2.938860 0.200000 2.000000 4.020000 0.200000
204 8 2.041396 0.290998 0.200000 1.000000 1.010000 0.200000
205 1 3.257406 2.307950 0.200000 1.990000 1.000000 0.200000
206 7 2.550625 2.712734 0.200000 1.000000 1.990000 0.200000
207 5 0.575928 2.478467 0.200000 1.010000 1.000000 0.200000
208 10 0.988130 2.440599 0.200000 2.000000 1.990000 0.200000
209 2 2.294885 4.877682 0.200000 1.980000 4.000000 0.200000
210 4 0.234893 0.445563 0.200000 1.010000 2.000000 0.200000
211 7 2.563065 3.583679 0.200000 1.000000 1.990000 0.200000
212 5 0.890409 1.318727 0.200000 1.010000 1.000000 0.200000
213 2 2.520973 5.541076 0.200000 1.980000 4.000000 0.200000
214 1 2.951754 2.777113 0.200000 1.990000 1.000000 0.200000
215 2 3.810649 5.693465 0.200000 1.980000 4.000000 0.200000
216 2 3.596345 4.602082 0.200000 1.980000 4.000000 0.200000
217 3 1.334277 3.220455 0.200000 2.000000 4.020000 0.200000
218 1 3.799281 2.797012 0.200000 1.990000 1.000000 0.200000
219 2 3.537271 5.803662 0.200000 1.980000 4.000000 0.200000
220 10 0.735061 2.748234 0.200000 2.000000 1.990000 0.200000
221 2 3.120896 4.598686 0.200000 1.980000 4.000000 0.200000
222 1 3.619126 1.545512 0.200000 1.990000 1.000000 0.200000
223 2 3.046450 5.781029 0.200000 1.980000 4.000000 0.200000
224 7 1.327383 2.414273 0.200000 1.000000 1.990000 0.200000
225 7 2.243138 3.326689 0.200000 1.000000 1.990000 0.200000
226 1 2.488666 1.146166 0.200000 1.990000 1.000000 0.200000
227 10 1.911844 2.160631 0.200000 2.000000 1.990000 0.200000
228 2 2.615520 5.499136 0.200000 1.980000 4.000000 0.200000
229 3 0.842766 3.639253 0.200000 2.000000 4.020000 0.200000
230 6 3.461734 0.658666 0.200000 1.990000 2.000000 0.200000
231 7 2.706216 3.578043 0.200000 1.000000 1.990000 0.200000
232 3 0.235442 3.365231 0.200000 2.000000 4.020000 0.200000
233 1 2.254470 1.455755 0.200000 1.990000 1.000000 0.200000
234 5 0.075643 2.063048 0.200000 1.010000 1.000000 0.200000
235 2 2.405707 4.624115 0.200000 1.980000 4.000000 0.200000
236 2 3.548788 5.599635 0.200000 1.980000 4.000000 0.200000
237 10 0.692259 2.687889 0.200000 2.000000 1.990000 0.200000
238 2 2.556037 5.794089 0.200000 1.980000 4.000000 0.200000
239 4 0.621346 1.757335 0.200000 1.010000 2.000000 0.200000
240 1 3.528817 2.196168 0.200000 1.990000 1.000000 0.200000
241 2 3.597725 4.485827 0.200000 1.980000 4.000000 0.200000
242 6 3.786562 0.733955 0.200000 1.990000 2.000000 0.200000
243 7 3.462716 3.739167 0.200000 1.000000 1.990000 0.200000
244 2 2.874665 5.547237 0.200000 1.980000 4.000000 0.200000
245 5 0.668661 1.217862 0.200000 1.010000 1.000000 0.200000
246 1 2.504501 1.057433 0.200000 1.990000 1.000000 0.200000
247 5 0.506677 1.365311 0.200000 1.010000 1.000000 0.200000
248 6 3.787699 0.083198 0.200000 1.990000 2.000000 0.200000
249 4 0.643298 0.719936 0.200000 1.010000 2.000000 0.200000
250 3 1.847391 3.891271 0.200000 2.000000 4.020000 0.200000
251 6 3.660882 0.605142 0.200000 1.990000 2.000000 0.200000
252 8 2.456907 0.423342 0.200000 1.000000 1.010000 0.200000
253 10 1.574984 2.978586 0.200000 2.000000 1.990000 0.200000
254 1 2.264658 1.144255 0.200000 1.990000 1.000000 0.200000
255 5 0.138865 2.591061 0.200000 1.010000 1.000000 0.200000
256 2 3.255615 4.520296 0.200000 1.980000 4.000000 0.200000
257 3 0.142666 3.141290 0.200000 2.000000 4.020000 0.200000
258 6 2.799149 1.965697 0.200000 1.990000 2.000000 0.200000
259 7 3.557374 3.880271 0.200000 1.000000 1.990000 0.200000
260 8 1.365929 0.301007 0.200000 1.000000 1.010000 0.200000
261 2 3.066805 4.819981 0.200000 1.980000 4.000000 0.200000
262 2 2.794852 4.091530 0.200000 1.980000 4.000000 0.200000
263 6 3.616749 1.877638 0.200000 1.990000 2.000000 0.200000
264 6 3.009915 1.787599 0.200000 1.990000 2.000000 0.200000
265 1 3.237483 1.134382 0.200000 1.990000 1.000000 0.200000
266 8 2.364442 0.320636 0.200000 1.000000 1.010000 0.200000
267 4 0.405817 0.943651 0.200000 1.010000 2.000000 0.200000
268 9 0.976594 0.817023 0.200000 2.000000 1.010000 0.200000
269 2 3.558213 5.673010 0.200000 1.980000 4.000000 0.200000
270 1 2.348045 1.013023 0.200000 1.990000 1.000000 0.200000
271 7 2.338341 2.858128 0.200000 1.000000 1.990000 0.200000
272 2 3.262196 5.556405 0.200000 1.980000 4.000000 0.200000
273 7 2.106090 3.493501 0.200000 1.000000 1.990000 0.200000
274 1 2.917591 1.351413 0.200000 1.990000 1.000000 0.200000
275 3 1.056688 3.801509 0.200000 2.000000 4.020000 0.200000
276 8 2.152701 0.099903 0.200000 1.000000 1.010000 0.200000
277 1 3.726072 2.085276 0.200000 1.990000 1.000000 0.200000
278 3 0.822857 3.135772 0.200000 2.000000 4.020000 0.200000
279 7 2.719615 3.870804 0.200000 1.000000 1.990000 0.200000
280 7 3.409645 3.604576 0.200000 1.000000 1.990000 0.200000
281 3 0.292943 3.086293 0.200000 2.000000 4.020000 0.200000
282 7 3.559251 3.668466 0.200000 1.000000 1.990000 0.200000
283 2 2.124131 4.927985 0.200000 1.980000 4.000000 0.200000
284 2 3.835828 4.420482 0.200000 1.980000 4.000000 0.200000
285 7 1.375838 2.159653 0.200000 1.000000 1.990000 0.200000
286 4 0.175661 0.143179 0.200000 1.010000 2.000000 0.200000
287 5 0.020305 2.923525 0.200000 1.010000 1.000000 0.200000
288 1 3.280585 3.044457 0.200000 1.990000 1.000000 0.200000
289 9 1.869883 0.469547 0.200000 2.000000 1.010000 0.200000
290 10 0.763934 2.901890 0.200000 2.000000 1.990000 0.200000
291 6 3.693523 0.260368 0.200000 1.990000 2.000000 0.200000
292 4 0.337644 1.469150 0.200000 1.010000 2.000000 0.200000
293 7 2.845419 3.667447 0.200000 1.000000 1.990000 0.200000
294 6 3.469876 0.996564 0.200000 1.990000 2.000000 0.200000
295 6 3.110020 0.041881 0.200000 1.990000 2.000000 0.200000
296 2 2.314450 4.418771 0.200000 1.980000 4.000000 0.200000
297 2 2.974908 5.535432 0.200000 1.980000 4.000000 0.200000
298 6 3.785741 0.608882 0.200000 1.990000 2.000000 0.200000
299 6 3.238971 0.570256 0.200000 1.990000 2.000000 0.200000
300 6 2.986921 1.663282 0.200000 1.990000 2.000000 0.200000
301 6 3.043448 0.580088 0.200000 1.990000 2.000000 0.200000
302 2 3.924434 5.071638 0.200000 1.980000 4.000000 0.200000
303 10 1.826057 2.606389 0.200000 2.000000 1.990000 0.200000
304 6 2.616115 1.943899 0.200000 1.990000 2.000000 0.200000
305 6 2.401969 0.779856 0.200000 1.990000 2.000000 0.200000
306 5 0.325060 2.267983 0.200000 1.010000 1.000000 0.200000
307 3 0.547824 3.959266 0.200000 2.000000 4.020000 0.200000
308 1 2.329799 1.265179 0.200000 1.990000 1.000000 0.200000
309 7 2.673302 3.173309 0.200000 1.000000 1.990000 0.200000
310 6 3.072822 0.732517 0.200000 1.990000 2.000000 0.200000
311 3 0.153059 3.089616 0.200000 2.000000 4.020000 0.200000
312 9 1.810599 0.960971 0.200000 2.000000 1.010000 0.200000
313 3 0.021740 3.898719 0.200000 2.000000 4.020000 0.200000
314 10 0.504888 2.771694 0.200000 2.000000 1.990000 0.200000
315 2 3.143729 4.108061 0.200000 1.980000 4.000000 0.200000
316 2 3.640906 5.203184 0.200000 1.980000 4.000000 0.200000
317 4 0.250696 0.283096 0.200000 1.010000 2.000000 0.200000
318 1 2.108300 1.062798 0.200000 1.990000 1.000000 0.200000
319 6 3.711463 0.657148 0.200000 1.990000 2.000000 0.200000
320 3 1.551985 3.577148 0.200000 2.000000 4.020000 0.200000
321 2 2.553638 4.202038 0.200000 1.980000 4.000000 0.200000
322 7 2.157654 2.439690 0.200000 1.000000 1.990000 0.200000
323 7 3.289703 3.466070 0.200000 1.000000 1.990000 0.200000
324 1 3.686204 1.330355 0.200000 1.990000 1.000000 0.200000
325 1 3.156975 2.245205 0.200000 1.990000 1.000000 0.200000
326 9 1.527551 0.584943 0.200000 2.000000 1.010000 0.200000
327 2 3.397086 4.988771 0.200000 1.980000 4.000000 0.200000
328 7 2.857727 3.811224 0.200000 1.000000 1.990000 0.200000
329 7 2.064554 3.747949 0.200000 1.000000 1.990000 0.200000
330 8 2.687363 0.176857 0.200000 1.000000 1.010000 0.200000
331 7 3.023782 3.598239 0.200000 1.000000 1.990000 0.200000
332 4 0.556003 0.863650 0.200000 1.010000 2.000000 0.200000
333 2 3.377125 4.411868 0.200000 1.980000 4.000000 0.200000
334 8 1.251958 0.633458 0.200000 1.000000 1.010000 0.200000
335 6 3.553731 0.613400 0.200000 1.990000 2.000000 0.200000
336 4 0.798895 1.726418 0.200000 1.010000 2.000000 0.200000
337 2 2.630572 5.682006 0.200000 1.980000 4.000000 0.200000
338 3 0.887670 3.041488 0.200000 2.000000 4.020000 0.200000
339 2 3.113851 5.618095 0.200000 1.980000 4.000000 0.200000
340 4 0.568474 1.767608 0.200000 1.010000 2.000000 0.200000
341 7 2.244029 3.867119 0.200000 1.000000 1.990000 0.200000
342 1 3.493655 1.397089 0.200000 1.990000 1.000000 0.200000
343 7 2.695984 3.776156 0.200000 1.000000 1.990000 0.200000
344 6 3.093204 0.170715 0.200000 1.990000 2.000000 0.200000
345 7 2.361628 3.705493 0.200000 1.000000 1.990000 0.200000
346 2 3.055055 4.646594 0.200000 1.980000 4.000000 0.200000
347 8 1.137157 0.460520 0.200000 1.000000 1.010000 0.200000
348 1 3.520035 1.036333 0.200000 1.990000 1.000000 0.200000
349 5 0.715947 2.158715 0.200000 1.010000 1.000000 0.200000
350 10 1.772171 2.272263 0.200000 2.000000 1.990000 0.200000
351 6 2.590089 0.604114 0.200000 1.990000 2.000000 0.200000
352 6 2.430401 0.625045 0.200000 1.990000 2.000000 0.200000
353 10 1.595102 2.200778 0.200000 2.000000 1.990000 0.200000
354 8 2.398578 0.409409 0.200000 1.000000 1.010000 0.200000
355 1 3.606194 2.593195 0.200000 1.990000 1.000000 0.200000
356 2 3.524927 4.049097 0.200000 1.980000 4.000000 0.200000
357 10 1.842607 2.829833 0.200000 2.000000 1.990000 0.200000
358 3 0.984285 3.460326 0.200000 2.000000 4.020000 0.200000
359 8 1.204675 0.756479 0.200000 1.000000 1.010000 0.200000
360 1 2.997773 2.880933 0.200000 1.990000 1.000000 0.200000
361 6 3.435464 0.800328 0.200000 1.990000 2.000000 0.200000
362 2 2.601963 4.125163 0.200000 1.980000 4.000000 0.200000
363 9 0.701652 0.268377 0.200000 2.000000 1.010000 0.200000
364 2 3.838866 4.650345 0.200000 1.980000 4.000000 0.200000
365 2 2.144458 4.007450 0.200000 1.980000 4.000000 0.200000
366 2 3.569295 4.271436 0.200000 1.980000 4.000000 0.200000
367 6 3.351944 0.928263 0.200000 1.990000 2.000000 0.200000
368 6 2.694593 1.943110 0.200000 1.990000 2.000000 0.200000
369 3 1.388785 3.195085 0.200000 2.000000 4.020000 0.200000
370 3 1.828959 3.842207 0.200000 2.000000 4.020000 0.200000
371 1 2.868366 2.760405 0.200000 1.990000 1.000000 0.200000
372 8 2.164558 0.035059 0.200000 1.000000 1.010000 0.200000
373 3 0.945439 3.918520 0.200000 2.000000 4.020000 0.200000
374 5 0.876620 2.095944 0.200000 1.010000 1.000000 0.200000
375 7 2.057407 2.558469 0.200000 1.000000 1.990000 0.200000
376 2 3.516050 5.919862 0.200000 1.980000 4.000000 0.200000
377 6 2.085043 1.705680 0.200000 1.990000 2.000000 0.200000
378 2 2.732393 4.717120 0.200000 1.980000 4.000000 0.200000
379 9 1.545195 0.842028 0.200000 2.000000 1.010000 0.200000
380 9 1.706218 0.620341 0.200000 2.000000 1.010000 0.200000
381 2 2.401622 5.806165 0.200000 1.980000 4.000000 0.200000
382 7 1.252748 2.374105 0.200000 1.000000 1.990000 0.200000
383 3 1.822762 3.194051 0.200000 2.000000 4.020000 0.200000
384 2 2.980033 5.820253 0.200000 1.980000 4.000000 0.200000
385 6 3.835014 0.531170 0.200000 1.990000 2.000000 0.200000
386 4 0.082033 0.318440 0.200000 1.010000 2.000000 0.200000
387 2 3.591532 5.397126 0.200000 1.980000 4.000000 0.200000
388 5 0.158868 2.514863 0.200000 1.010000 1.000000 0.200000
389 7 3.113562 3.736748 0.200000 1.000000 1.990000 0.200000
390 10 0.294551 2.768933 0.200000 2.000000 1.990000 0.200000
391 10 1.635912 2.759619 0.200000 2.000000 1.990000 0.200000
392 2 2.407308 5.013195 0.200000 1.980000 4.000000 0.200000
393 1 2.253307 1.213394 0.200000 1.990000 1.000000 0.200000
394 10 1.900655 2.307054 0.200000 2.000000 1.990000 0.200000
395 6 3.714711 0.537930 0.200000 1.990000 2.000000 0.200000
396 2 3.283703 5.810368 0.200000 1.980000 4.000000 0.200000
397 8 2.035196 0.028359 0.200000 1.000000 1.010000 0.200000
398 4 0.752992 1.723137 0.200000 1.010000 2.000000 0.200000
399 6 2.510071 1.571316 0.200000 1.990000 2.000000 0.200000
400 6 2.994713 0.218975 0.200000 1.990000 2.000000 0.200000
401 1 2.887290 2.103032 0.200000 1.990000 1.000000 0.200000
402 6 3.488114 1.710895 0.200000 1.990000 2.000000 0.200000
403 2 2.210950 4.051531 0.200000 1.980000 4.000000 0.200000
404 7 3.830837 3.744358 0.200000 1.000000 1.990000 0.200000
405 4 0.397140 1.587743 0.200000 1.010000 2.000000 0.200000
406 6 3.204096 1.746342 0.200000 1.990000 2.000000 0.200000
407 9 1.522848 0.041725 0.200000 2.000000 1.010000 0.200000
408 2 2.792385 5.337065 0.200000 1.980000 4.000000 0.200000
409 3 0.706801 3.835191 0.200000 2.000000 4.020000 0.200000
410 2 2.702778 5.220316 0.200000 1.980000 4.000000 0.200000
411 9 0.891912 0.677467 0.200000 2.000000 1.010000 0.200000
412 7 2.183138 2.767499 0.200000 1.000000 1.990000 0.200000
413 2 3.427303 5.457071 0.200000 1.980000 4.000000 0.200000
414 5 0.696543 1.126159 0.200000 1.010000 1.000000 0.200000
415 10 0.988671 2.160986 0.200000 2.000000 1.990000 0.200000
416 7 3.669579 3.767279 0.200000 1.000000 1.990000 0.200000
417 3 1.468474 3.692946 0.200000 2.000000 4.020000 0.200000
418 7 2.069563 2.272795 0.200000 1.000000 1.990000 0.200000
419 2 2.007341 4.164546 0.200000 1.980000 4.000000 0.200000
420 3 0.071991 3.900394 0.200000 2.000000 4.020000 0.200000
421 2 2.477879 4.162152 0.200000 1.980000 4.000000 0.200000
422 2 2.080473 5.372122 0.200000 1.980000 4.000000 0.200000
423 1 3.152925 1.059939 0.200000 1.990000 1.000000 0.200000
424 7 1.300708 2.004095 0.200000 1.000000 1.990000 0.200000
425 1 2.551625 1.092017 0.200000 1.990000 1.000000 0.200000
426 9 0.974111 0.147453 0.200000 2.000000 1.010000 0.200000
427 10 0.849075 2.311690 0.200000 2.000000 1.990000 0.200000
428 6 3.111311 0.777980 0.200000 1.990000 2.000000 0.200000
429 4 0.052646 0.869677 0.200000 1.010000 2.000000 0.200000
430 7 2.980618 3.183313 0.200000 1.000000 1.990000 0.200000
431 1 2.094981 1.481938 0.200000 1.990000 1.000000 0.200000
432 3 0.898573 3.250458 0.200000 2.000000 4.020000 0.200000
433 2 3.588221 5.064678 0.200000 1.980000 4.000000 0.200000
434 10 0.941740 2.503042 0.200000 2.000000 1.990000 0.200000
435 1 2.957867 2.861100 0.200000 1.990000 1.000000 0.200000
436 10 0.369975 2.780652 0.200000 2.000000 1.990000 0.200000
437 2 3.764972 5.284351 0.200000 1.980000 4.000000 0.200000
438 6 2.560394 1.598520 0.200000 1.990000 2.000000 0.200000
439 4 0.858963 1.668028 0.200000 1.010000 2.000000 0.200000
440 10 1.793691 2.749611 0.200000 2.000000 1.990000 0.200000
441 3 1.210321 3.519219 0.200000 2.000000 4.020000 0.200000
442 1 3.503728 3.089093 0.200000 1.990000 1.000000 0.200000
443 7 3.887273 3.922558 0.200000 1.000000 1.990000 0.200000
444 2 2.578049 5.909878 0.200000 1.980000 4.000000 0.200000
445 1 3.194824 2.338000 0.200000 1.990000 1.000000 0.200000
446 6 2.062127 1.934707 0.200000 1.990000 2.000000 0.200000
447 2 2.546625 4.441051 0.200000 1.980000 4.000000 0.200000
448 1 3.456777 3.202270 0.200000 1.990000 1.000000 0.200000
449 8 2.337152 0.597776 0.200000 1.000000 1.010000 0.200000
450 6 3.803541 1.942529 0.200000 1.990000 2.000000 0.200000
451 8 2.305917 0.260274 0.200000 1.000000 1.010000 0.200000
452 1 3.148787 3.106333 0.200000 1.990000 1.000000 0.200000
453 1 3.696416 2.563772 0.200000 1.990000 1.000000 0.200000
454 6 3.136569 0.833070 0.200000 1.990000 2.000000 0.200000
455 1 2.821200 1.395390 0.200000 1.990000 1.000000 0.200000
456 8 2.388454 0.047281 0.200000 1.000000 1.010000 0.200000
457 1 3.276406 2.838273 0.200000 1.990000 1.000000 0.200000
458 2 2.090916 4.745519 0.200000 1.980000 4.000000 0.200000
459 5 0.507221 1.003447 0.200000 1.010000 1.000000 0.200000
460 2 3.103598 5.553066 0.200000 1.980000 4.000000 0.200000
461 6 2.227631 1.748588 0.200000 1.990000 2.000000 0.200000
462 5 0.991849 1.161384 0.200000 1.010000 1.000000 0.200000
463 4 0.126425 0.672939 0.200000 1.010000 2.000000 0.200000
464 7 2.909103 3.695367 0.200000 1.000000 1.990000 0.200000
465 2 3.758597 4.729592 0.200000 1.980000 4.000000 0.200000
466 2 2.886160 4.361077 0.200000 1.980000 4.000000 0.200000
467 3 1.223950 3.873865 0.200000 2.000000 4.020000 0.200000
468 9 0.616566 0.540778 0.200000 2.000000 1.010000 0.200000
469 2 3.137956 5.156648 0.200000 1.980000 4.000000 0.200000
470 7 1.290779 2.289615 0.200000 1.000000 1.990000 0.200000
471 6 3.469286 0.850778 0.200000 1.990000 2.000000 0.200000
472 1 3.418592 2.340302 0.200000 1.990000 1.000000 0.200000
473 2 3.730865 5.888720 0.200000 1.980000 4.000000 0.200000
474 2 2.229166 4.251694 0.200000 1.980000 4.000000 0.200000
475 6 3.627857 0.685195 0.200000 1.990000 2.000000 0.200000
476 4 0.000188 0.929560 0.200000 1.010000 2.000000 0.200000
477 8 1.231053 0.189919 0.200000 1.000000 1.010000 0.200000
478 8 1.068333 0.210234 0.200000 1.000000 1.010000 0.200000
479 7 2.590191 2.873215 0.200000 1.000000 1.990000 0.200000
480 7 2.852800 3.523182 0.200000 1.000000 1.990000 0.200000
481 7 1.068538 2.608440 0.200000 1.000000 1.990000 0.200000
482 3 1.256173 3.438731 0.200000 2.000000 4.020000 0.200000
483 10 0.321536 2.809108 0.200000 2.000000 1.990000 0.200000
484 2 2.653006 5.189239 0.200000 1.980000 4.000000 0.200000
485 4 0.510971 0.606742 0.200000 1.010000 2.000000 0.200000
486 8 2.339992 0.362753 0.200000 1.000000 1.010000 0.200000
487 4 0.330308 0.853736 0.200000 1.010000 2.000000 0.200000
488 2 3.076298 5.937248 0.200000 1.980000 4.000000 0.200000
489 3 0.577872 3.385510 0.200000 2.000000 4.020000 0.200000
490 1 3.203098 2.469307 0.200000 1.990000 1.000000 0.200000
491 7 2.397163 2.689934 0.200000 1.000000 1.990000 0.200000
492 6 3.561681 1.874944 0.200000 1.990000 2.000000 0.200000
493 4 0.142077 0.945328 0.200000 1.010000 2.000000 0.200000
494 1 2.988922 2.097375 0.200000 1.990000 1.000000 0.200000
495 2 2.922706 4.965688 0.200000 1.980000 4.000000 0.200000
496 1 3.270988 2.363569 0.200000 1.990000 1.000000 0.200000
497 6 2.769951 0.872239 0.200000 1.990000 2.000000 0.200000
498 7 1.361282 3.045703 0.200000 1.000000 1.990000 0.200000