ITEM: TIMESTEP
0
ITEM: NUMBER OF ATOMS
1000
ITEM: BOX BOUNDS pp pp pp
0.000000 3.000000
0.000000 5.000000
0.000000 0.400000
ITEM: ATOMS id type x y z tx ty tz
1 1 2.349298 3.992200 0.200000 1.980000 4.000000 0.200000
2 2 2.734942 0.987757 0.200000 1.000000 1.010000 0.200000
3 3 0.833324 2.769850 0.200000 2.000000 3.010000 0.200000
4 4 1.094353 2.567005 0.200000 1.000000 1.990000 0.200000
5 5 2.856689 4.580975 0.200000 1.980000 3.000000 0.200000
6 6 0.048902 1.214434 0.200000 1.020000 1.000000 0.200000
7 7 0.411695 4.020884 0.200000 2.000000 3.990000 0.200000
8 6 0.470037 2.004722 0.200000 1.020000 1.000000 0.200000
9 8 0.389371 0.544044 0.200000 1.020000 2.000000 0.200000
10 7 1.538797 4.195561 0.200000 2.000000 3.990000 0.200000
11 3 1.912657 2.621436 0.200000 2.000000 3.010000 0.200000
12 7 1.480749 4.863875 0.200000 2.000000 3.990000 0.200000
13 7 1.200686 4.457647 0.200000 2.000000 3.990000 0.200000
14 8 0.849944 1.762292 0.200000 1.020000 2.000000 0.200000
15 5 2.423174 4.595132 0.200000 1.980000 3.000000 0.200000
16 7 0.209266 4.746635 0.200000 2.000000 3.990000 0.200000
17 2 1.577986 0.430279 0.200000 1.000000 1.010000 0.200000
18 8 0.192514 0.100115 0.200000 1.020000 2.000000 0.200000
19 2 1.373105 0.315479 0.200000 1.000000 1.010000 0.200000
20 7 0.714840 4.853171 0.200000 2.000000 3.990000 0.200000
21 5 2.706624 4.254599 0.200000 1.980000 3.000000 0.200000
22 3 0.799997 2.698802 0.200000 2.000000 3.010000 0.200000
23 2 1.594819 0.196402 0.200000 1.000000 1.010000 0.200000
24 7 1.312913 4.659175 0.200000 2.000000 3.990000 0.200000
25 1 2.792429 3.604762 0.200000 1.980000 4.000000 0.200000
26 2 2.063584 0.829871 0.200000 1.000000 1.010000 0.200000
27 7 1.320314 4.400376 0.200000 2.000000 3.990000 0.200000
28 7 0.686905 4.466862 0.200000 2.000000 3.990000 0.200000
29 1 2.869405 2.943201 0.200000 1.980000 4.000000 0.200000
30 7 1.971912 4.293382 0.200000 2.000000 3.990000 0.200000
31 7 1.195310 4.073834 0.200000 2.000000 3.990000 0.200000
32 5 2.052656 4.554860 0.200000 1.980000 3.000000 0.200000
33 7 0.442980 4.405311 0.200000 2.000000 3.990000 0.200000
34 3 1.923242 2.159767 0.200000 2.000000 3.010000 0.200000
35 6 0.562599 1.381173 0.200000 1.020000 1.000000 0.200000
36 4 1.669331 2.082506 0.200000 1.000000 1.990000 0.200000
37 7 0.508821 4.534020 0.200000 2.000000 3.990000 0.200000
38 8 0.309514 0.630377 0.200000 1.020000 2.000000 0.200000
39 5 2.954255 4.675020 0.200000 1.980000 3.000000 0.200000
40 6 0.882481 1.161308 0.200000 1.020000 1.000000 0.200000
41 6 0.157588 2.607817 0.200000 1.020000 1.000000 0.200000
42 6 0.528632 1.200312 0.200000 1.020000 1.000000 0.200000
43 1 2.393394 3.663272 0.200000 1.980000 4.000000 0.200000
44 7 1.969691 4.837026 0.200000 2.000000 3.990000 0.200000
45 8 0.280441 0.674512 0.200000 1.020000 2.000000 0.200000
46 2 1.560630 0.391161 0.200000 1.000000 1.010000 0.200000
47 6 0.209719 1.023275 0.200000 1.020000 1.000000 0.200000
48 7 1.384261 4.098386 0.200000 2.000000 3.990000 0.200000
49 8 0.155816 0.789036 0.200000 1.020000 2.000000 0.200000
50 2 2.669867 0.627342 0.200000 1.000000 1.010000 0.200000
51 2 2.993397 0.270288 0.200000 1.000000 1.010000 0.200000
52 2 2.611620 0.361644 0.200000 1.000000 1.010000 0.200000
53 7 0.012485 4.615346 0.200000 2.000000 3.990000 0.200000
54 2 1.781677 0.901861 0.200000 1.000000 1.010000 0.200000
55 8 0.489394 1.958451 0.200000 1.020000 2.000000 0.200000
56 5 2.739080 4.098476 0.200000 1.980000 3.000000 0.200000
57 4 1.077286 2.762425 0.200000 1.000000 1.990000 0.200000
58 4 1.738290 2.262879 0.200000 1.000000 1.990000 0.200000
59 2 2.062162 0.498200 0.200000 1.000000 1.010000 0.200000
60 7 0.912885 4.961142 0.200000 2.000000 3.990000 0.200000
61 7 1.730913 4.388069 0.200000 2.000000 3.990000 0.200000
62 5 2.243428 3.144550 0.200000 1.980000 3.000000 0.200000
63 5 2.499716 4.626883 0.200000 1.980000 3.000000 0.200000
64 5 2.619814 4.155188 0.200000 1.980000 3.000000 0.200000
65 1 2.938302 3.719056 0.200000 1.980000 4.000000 0.200000
66 5 2.710099 4.917979 0.200000 1.980000 3.000000 0.200000
67 4 2.000641 2.486293 0.200000 1.000000 1.990000 0.200000
68 7 0.491904 4.150059 0.200000 2.000000 3.990000 0.200000
69 2 2.666846 0.384973 0.200000 1.000000 1.010000 0.200000
70 6 0.986331 1.157140 0.200000 1.020000 1.000000 0.200000
71 7 1.532058 4.857329 0.200000 2.000000 3.990000 0.200000
72 2 2.157806 0.566403 0.200000 1.000000 1.010000 0.200000
73 3 1.414450 2.962700 0.200000 2.000000 3.010000 0.200000
74 4 2.832954 2.254588 0.200000 1.000000 1.990000 0.200000
75 7 1.009053 4.238422 0.200000 2.000000 3.990000 0.200000
76 2 1.303540 0.016157 0.200000 1.000000 1.010000 0.200000
77 3 1.034829 2.992406 0.200000 2.000000 3.010000 0.200000
78 4 2.026428 2.414751 0.200000 1.000000 1.990000 0.200000
79 2 2.136262 0.912779 0.200000 1.000000 1.010000 0.200000
80 2 1.865468 0.204322 0.200000 1.000000 1.010000 0.200000
81 5 2.021809 3.188201 0.200000 1.980000 3.000000 0.200000
82 2 1.041348 0.923112 0.200000 1.000000 1.010000 0.200000
83 5 2.762743 3.423783 0.200000 1.980000 3.000000 0.200000
84 7 0.781491 4.386920 0.200000 2.000000 3.990000 0.200000
85 8 0.333827 1.808005 0.200000 1.020000 2.000000 0.200000
86 3 1.730072 2.966057 0.200000 2.000000 3.010000 0.200000
87 8 0.988926 0.948755 0.200000 1.020000 2.000000 0.200000
88 2 2.953090 0.017893 0.200000 1.000000 1.010000 0.200000
89 6 0.564603 2.182485 0.200000 1.020000 1.000000 0.200000
90 1 2.294614 3.495377 0.200000 1.980000 4.000000 0.200000
91 1 2.380971 2.740210 0.200000 1.980000 4.000000 0.200000
92 7 0.891865 4.524662 0.200000 2.000000 3.990000 0.200000
93 5 2.728929 4.369895 0.200000 1.980000 3.000000 0.200000
94 3 1.494432 2.880998 0.200000 2.000000 3.010000 0.200000
95 6 0.488270 1.369556 0.200000 1.020000 1.000000 0.200000
96 1 2.593737 2.461994 0.200000 1.980000 4.000000 0.200000
97 7 1.390986 4.244711 0.200000 2.000000 3.990000 0.200000
98 2 2.182651 0.695291 0.200000 1.000000 1.010000 0.200000
99 3 1.809326 2.462109 0.200000 2.000000 3.010000 0.200000
100 1 2.514401 3.621260 0.200000 1.980000 4.000000 0.200000
101 6 0.534623 1.109828 0.200000 1.020000 1.000000 0.200000
102 2 1.495576 0.606294 0.200000 1.000000 1.010000 0.200000
103 8 0.414715 1.802213 0.200000 1.020000 2.000000 0.200000
104 7 0.974421 4.659476 0.200000 2.000000 3.990000 0.200000
105 5 2.725454 3.110477 0.200000 1.980000 3.000000 0.200000
106 5 2.510483 4.090638 0.200000 1.980000 3.000000 0.200000
107 8 0.453690 0.362725 0.200000 1.020000 2.000000 0.200000
108 8 0.994157 0.455743 0.200000 1.020000 2.000000 0.200000
109 2 1.462281 0.786361 0.200000 1.000000 1.010000 0.200000
110 5 2.649110 3.128327 0.200000 1.980000 3.000000 0.200000
111 4 1.672682 2.130997 0.200000 1.000000 1.990000 0.200000
112 8 0.732981 1.630067 0.200000 1.020000 2.000000 0.200000
113 5 2.188080 3.193271 0.200000 1.980000 3.000000 0.200000
114 2 2.692681 0.680373 0.200000 1.000000 1.010000 0.200000
115 2 1.232364 0.027043 0.200000 1.000000 1.010000 0.200000
116 1 2.349846 3.871931 0.200000 1.980000 4.000000 0.200000
117 8 0.881034 0.573339 0.200000 1.020000 2.000000 0.200000
118 1 2.596604 3.605029 0.200000 1.980000 4.000000 0.200000
119 6 0.147487 2.245526 0.200000 1.020000 1.000000 0.200000
120 1 2.959401 3.539545 0.200000 1.980000 4.000000 0.200000
121 6 0.632649 2.369470 0.200000 1.020000 1.000000 0.200000
122 2 2.595544 0.469598 0.200000 1.000000 1.010000 0.200000
123 8 0.298678 1.914480 0.200000 1.020000 2.000000 0.200000
124 2 2.427286 0.658511 0.200000 1.000000 1.010000 0.200000
125 8 0.154525 0.267111 0.200000 1.020000 2.000000 0.200000
126 4 2.076229 2.212801 0.200000 1.000000 1.990000 0.200000
127 3 0.357334 2.948184 0.200000 2.000000 3.010000 0.200000
128 3 1.735905 2.649496 0.200000 2.000000 3.010000 0.200000
129 7 0.912856 4.443617 0.200000 2.000000 3.990000 0.200000
130 2 1.429754 0.849101 0.200000 1.000000 1.010000 0.200000
131 3 1.829187 2.628736 0.200000 2.000000 3.010000 0.200000
132 3 1.856776 2.980981 0.200000 2.000000 3.010000 0.200000
133 7 0.700969 4.149041 0.200000 2.000000 3.990000 0.200000
134 8 0.210271 0.494187 0.200000 1.020000 2.000000 0.200000
135 2 2.771183 0.848248 0.200000 1.000000 1.010000 0.200000
136 7 1.071579 4.391388 0.200000 2.000000 3.990000 0.200000
137 7 1.032753 4.074543 0.200000 2.000000 3.990000 0.200000
138 2 1.977438 0.181637 0.200000 1.000000 1.010000 0.200000
139 7 1.877892 4.180519 0.200000 2.000000 3.990000 0.200000
140 6 0.924470 1.105047 0.200000 1.020000 1.000000 0.200000
141 1 2.346787 3.597309 0.200000 1.980000 4.000000 0.200000
142 6 0.601057 2.005938 0.200000 1.020000 1.000000 0.200000
143 6 0.946974 2.170043 0.200000 1.020000 1.000000 0.200000
144 8 0.692988 1.928741 0.200000 1.020000 2.000000 0.200000
145 2 1.598538 0.773619 0.200000 1.000000 1.010000 0.200000
146 2 1.666193 0.072897 0.200000 1.000000 1.010000 0.200000
147 7 1.656949 4.597954 0.200000 2.000000 3.990000 0.200000
148 5 2.057959 4.048926 0.200000 1.980000 3.000000 0.200000
149 2 1.937667 0.030024 0.200000 1.000000 1.010000 0.200000
150 7 1.598880 4.219548 0.200000 2.000000 3.990000 0.200000
151 4 1.555545 2.003545 0.200000 1.000000 1.990000 0.200000
152 5 2.405690 3.389062 0.200000 1.980000 3.000000 0.200000
153 8 0.458627 0.164463 0.200000 1.020000 2.000000 0.200000
154 1 2.100903 2.839155 0.200000 1.980000 4.000000 0.200000
155 8 0.003376 0.028546 0.200000 1.020000 2.000000 0.200000
156 6 0.915716 1.307852 0.200000 1.020000 1.000000 0.200000
157 8 0.543484 1.706772 0.200000 1.020000 2.000000 0.200000
158 5 2.002022 4.395047 0.200000 1.980000 3.000000 0.200000
159 2 2.655043 0.931324 0.200000 1.000000 1.010000 0.200000
160 3 0.471418 2.517305 0.200000 2.000000 3.010000 0.200000
161 5 2.486872 3.378270 0.200000 1.980000 3.000000 0.200000
162 1 2.606772 2.736985 0.200000 1.980000 4.000000 0.200000
163 5 2.216878 4.662423 0.200000 1.980000 3.000000 0.200000
164 7 0.699357 4.632879 0.200000 2.000000 3.990000 0.200000
165 7 1.654329 4.667100 0.200000 2.000000 3.990000 0.200000
166 3 1.483221 2.762842 0.200000 2.000000 3.010000 0.200000
167 1 2.817387 3.998228 0.200000 1.980000 4.000000 0.200000
168 1 2.442416 2.972486 0.200000 1.980000 4.000000 0.200000
169 7 1.971603 4.976500 0.200000 2.000000 3.990000 0.200000
170 1 2.622928 2.945783 0.200000 1.980000 4.000000 0.200000
171 5 2.386471 4.325428 0.200000 1.980000 3.000000 0.200000
172 5 2.619064 3.322072 0.200000 1.980000 3.000000 0.200000
173 2 1.737065 0.164817 0.200000 1.000000 1.010000 0.200000
174 4 2.102731 2.590753 0.200000 1.000000 1.990000 0.200000
175 1 2.497827 2.575245 0.200000 1.980000 4.000000 0.200000
176 6 0.337944 2.449050 0.200000 1.020000 1.000000 0.200000
177 2 1.531047 0.242498 0.200000 1.000000 1.010000 0.200000
178 3 1.912969 2.260612 0.200000 2.000000 3.010000 0.200000
179 6 0.431946 2.065389 0.200000 1.020000 1.000000 0.200000
180 6 0.741098 2.033833 0.200000 1.020000 1.000000 0.200000
181 7 1.721164 4.064735 0.200000 2.000000 3.990000 0.200000
182 7 1.432084 4.975824 0.200000 2.000000 3.990000 0.200000
183 8 0.176170 0.371302 0.200000 1.020000 2.000000 0.200000
184 3 1.922299 2.986399 0.200000 2.000000 3.010000 0.200000
185 6 0.667807 1.098939 0.200000 1.020000 1.000000 0.200000
186 7 1.890729 4.617564 0.200000 2.000000 3.990000 0.200000
187 4 2.213816 2.314261 0.200000 1.000000 1.990000 0.200000
188 7 1.315685 4.252932 0.200000 2.000000 3.990000 0.200000
189 5 2.857987 4.744554 0.200000 1.980000 3.000000 0.200000
190 1 2.697258 3.835068 0.200000 1.980000 4.000000 0.200000
191 4 1.000708 2.683712 0.200000 1.000000 1.990000 0.200000
192 4 2.849461 2.330843 0.200000 1.000000 1.990000 0.200000
193 5 2.652953 4.836385 0.200000 1.980000 3.000000 0.200000
194 6 0.551296 2.290195 0.200000 1.020000 1.000000 0.200000
195 1 2.340672 3.832238 0.200000 1.980000 4.000000 0.200000
196 5 2.284837 4.817524 0.200000 1.980000 3.000000 0.200000
197 6 0.995537 2.011894 0.200000 1.020000 1.000000 0.200000
198 3 1.682354 2.772241 0.200000 2.000000 3.010000 0.200000
199 2 1.866500 0.955138 0.200000 1.000000 1.010000 0.200000
200 7 1.961640 4.582613 0.200000 2.000000 3.990000 0.200000
201 2 2.596301 0.548888 0.200000 1.000000 1.010000 0.200000
202 2 1.120668 0.995014 0.200000 1.000000 1.010000 0.200000
203 1 2.029662 2.981703 0.200000 1.980000 4.000000 0.200000
204 3 0.176581 2.804359 0.200000 2.000000 3.010000 0.200000
205 8 0.056732 1.719207 0.200000 1.020000 2.000000 0.200000
206 5 2.661591 4.666363 0.200000 1.980000 3.000000 0.200000
207 6 0.519194 2.239908 0.200000 1.020000 1.000000 0.200000
208 7 1.917028 4.828408 0.200000 2.000000 3.990000 0.200000
209 6 0.466009 1.464446 0.200000 1.020000 1.000000 0.200000
210 1 2.698294 3.738189 0.200000 1.980000 4.000000 0.200000
211 2 2.839921 0.611629 0.200000 1.000000 1.010000 0.200000
212 5 2.597037 3.115972 0.200000 1.980000 3.000000 0.200000
213 5 2.155999 4.622698 0.200000 1.980000 3.000000 0.200000
214 6 0.501496 1.014885 0.200000 1.020000 1.000000 0.200000
215 2 1.878375 0.881194 0.200000 1.000000 1.010000 0.200000
216 6 0.380008 1.137759 0.200000 1.020000 1.000000 0.200000
217 2 2.840774 0.069331 0.200000 1.000000 1.010000 0.200000
218 8 0.482473 0.599947 0.200000 1.020000 2.000000 0.200000
219 2 2.745662 0.504285 0.200000 1.000000 1.010000 0.200000
220 2 1.842680 0.352785 0.200000 1.000000 1.010000 0.200000
221 4 1.181238 2.482155 0.200000 1.000000 1.990000 0.200000
222 7 0.732206 4.561953 0.200000 2.000000 3.990000 0.200000
223 2 1.698493 0.953546 0.200000 1.000000 1.010000 0.200000
224 6 0.104149 2.159218 0.200000 1.020000 1.000000 0.200000
225 1 2.441711 3.766913 0.200000 1.980000 4.000000 0.200000
226 7 1.069149 4.989849 0.200000 2.000000 3.990000 0.200000
227 6 0.106999 2.617742 0.200000 1.020000 1.000000 0.200000
228 5 2.668030 3.233559 0.200000 1.980000 3.000000 0.200000
229 2 1.024447 0.250839 0.200000 1.000000 1.010000 0.200000
230 5 2.300103 4.016651 0.200000 1.980000 3.000000 0.200000
231 5 2.096139 3.409609 0.200000 1.980000 3.000000 0.200000
232 2 2.428112 0.945318 0.200000 1.000000 1.010000 0.200000
233 2 1.773332 0.267197 0.200000 1.000000 1.010000 0.200000
234 8 0.304362 0.786375 0.200000 1.020000 2.000000 0.200000
235 8 0.732446 0.680853 0.200000 1.020000 2.000000 0.200000
236 5 2.668660 4.727508 0.200000 1.980000 3.000000 0.200000
237 7 0.168067 4.626098 0.200000 2.000000 3.990000 0.200000
238 2 1.761034 0.844186 0.200000 1.000000 1.010000 0.200000
239 3 1.753756 2.381773 0.200000 2.000000 3.010000 0.200000
240 5 2.446647 4.630338 0.200000 1.980000 3.000000 0.200000
241 3 1.579568 2.911251 0.200000 2.000000 3.010000 0.200000
242 2 1.614526 0.083253 0.200000 1.000000 1.010000 0.200000
243 3 0.617143 2.613143 0.200000 2.000000 3.010000 0.200000
244 5 2.039711 3.225670 0.200000 1.980000 3.000000 0.200000
245 7 0.048532 4.225614 0.200000 2.000000 3.990000 0.200000
246 5 2.557233 3.003813 0.200000 1.980000 3.000000 0.200000
247 6 0.750631 1.281139 0.200000 1.020000 1.000000 0.200000
248 6 0.219707 2.571911 0.200000 1.020000 1.000000 0.200000
249 5 2.669438 3.057055 0.200000 1.980000 3.000000 0.200000
250 7 1.593098 4.106654 0.200000 2.000000 3.990000 0.200000
251 1 2.876871 3.683735 0.200000 1.980000 4.000000 0.200000
252 8 0.131746 0.119316 0.200000 1.020000 2.000000 0.200000
253 6 0.015229 2.436271 0.200000 1.020000 1.000000 0.200000
254 1 2.460439 2.537048 0.200000 1.980000 4.000000 0.200000
255 2 1.402413 0.391289 0.200000 1.000000 1.010000 0.200000
256 6 0.572951 2.418242 0.200000 1.020000 1.000000 0.200000
257 2 2.770142 0.216974 0.200000 1.000000 1.010000 0.200000
258 6 0.253233 1.224292 0.200000 1.020000 1.000000 0.200000
259 5 2.134065 3.056206 0.200000 1.980000 3.000000 0.200000
260 7 0.278575 4.807826 0.200000 2.000000 3.990000 0.200000
261 2 2.602407 0.830470 0.200000 1.000000 1.010000 0.200000
262 2 2.332515 0.034901 0.200000 1.000000 1.010000 0.200000
263 5 2.231181 4.612860 0.200000 1.980000 3.000000 0.200000
264 2 2.839306 0.507402 0.200000 1.000000 1.010000 0.200000
265 6 0.824690 1.196604 0.200000 1.020000 1.000000 0.200000
266 2 2.429228 0.475214 0.200000 1.000000 1.010000 0.200000
267 7 0.519902 4.688569 0.200000 2.000000 3.990000 0.200000
268 2 2.282586 0.483407 0.200000 1.000000 1.010000 0.200000
269 5 2.943326 4.226365 0.200000 1.980000 3.000000 0.200000
270 4 1.369543 2.171990 0.200000 1.000000 1.990000 0.200000
271 2 1.801476 0.649880 0.200000 1.000000 1.010000 0.200000
272 8 0.243795 1.889986 0.200000 1.020000 2.000000 0.200000
273 7 0.343377 4.403416 0.200000 2.000000 3.990000 0.200000
274 4 2.004977 2.644424 0.200000 1.000000 1.990000 0.200000
275 7 0.937030 4.716110 0.200000 2.000000 3.990000 0.200000
276 2 2.304617 0.610431 0.200000 1.000000 1.010000 0.200000
277 6 0.114795 2.574680 0.200000 1.020000 1.000000 0.200000
278 2 1.357949 0.800809 0.200000 1.000000 1.010000 0.200000
279 6 0.378666 2.309745 0.200000 1.020000 1.000000 0.200000
280 5 2.357797 3.423384 0.200000 1.980000 3.000000 0.200000
281 8 0.188022 0.235913 0.200000 1.020000 2.000000 0.200000
282 2 1.581225 0.885665 0.200000 1.000000 1.010000 0.200000
283 2 2.783597 0.547623 0.200000 1.000000 1.010000 0.200000
284 3 1.163988 2.980957 0.200000 2.000000 3.010000 0.200000
285 4 1.618240 2.033075 0.200000 1.000000 1.990000 0.200000
286 1 2.467278 2.888391 0.200000 1.980000 4.000000 0.200000
287 2 1.145663 0.487453 0.200000 1.000000 1.010000 0.200000
288 5 2.547815 4.157309 0.200000 1.980000 3.000000 0.200000
289 5 2.143295 3.176020 0.200000 1.980000 3.000000 0.200000
290 2 2.015522 0.147381 0.200000 1.000000 1.010000 0.200000
291 1 2.267836 2.998533 0.200000 1.980000 4.000000 0.200000
292 8 0.417002 0.719708 0.200000 1.020000 2.000000 0.200000
293 1 2.532844 3.676556 0.200000 1.980000 4.000000 0.200000
294 8 0.938969 0.527882 0.200000 1.020000 2.000000 0.200000
295 2 2.665299 0.511166 0.200000 1.000000 1.010000 0.200000
296 6 0.599172 1.438682 0.200000 1.020000 1.000000 0.200000
297 7 1.972929 4.735005 0.200000 2.000000 3.990000 0.200000
298 3 0.665753 2.534573 0.200000 2.000000 3.010000 0.200000
299 5 2.335388 4.681746 0.200000 1.980000 3.000000 0.200000
300 6 0.426356 1.473007 0.200000 1.020000 1.000000 0.200000
301 5 2.021988 3.146797 0.200000 1.980000 3.000000 0.200000
302 2 2.319903 0.142263 0.200000 1.000000 1.010000 0.200000
303 1 2.291291 3.872162 0.200000 1.980000 4.000000 0.200000
304 8 0.852868 0.383767 0.200000 1.020000 2.000000 0.200000
305 2 2.640026 0.863611 0.200000 1.000000 1.010000 0.200000
306 8 0.536960 1.798929 0.200000 1.020000 2.000000 0.200000
307 2 1.942567 0.503428 0.200000 1.000000 1.010000 0.200000
308 7 0.977134 4.347199 0.200000 2.000000 3.990000 0.200000
309 2 1.822801 0.520871 0.200000 1.000000 1.010000 0.200000
310 2 1.798933 0.341174 0.200000 1.000000 1.010000 0.200000
311 4 2.704646 2.160996 0.200000 1.000000 1.990000 0.200000
312 5 2.643695 3.374248 0.200000 1.980000 3.000000 0.200000
313 4 1.381955 2.358194 0.200000 1.000000 1.990000 0.200000
314 3 0.738214 2.883605 0.200000 2.000000 3.010000 0.200000
315 8 0.903507 0.630400 0.200000 1.020000 2.000000 0.200000
316 4 2.248329 2.400778 0.200000 1.000000 1.990000 0.200000
317 2 1.457597 0.962429 0.200000 1.000000 1.010000 0.200000
318 2 2.576598 0.666940 0.200000 1.000000 1.010000 0.200000
319 8 0.879514 0.922887 0.200000 1.020000 2.000000 0.200000
320 7 0.008483 4.503859 0.200000 2.000000 3.990000 0.200000
321 7 0.866255 4.043084 0.200000 2.000000 3.990000 0.200000
322 8 0.526239 0.223647 0.200000 1.020000 2.000000 0.200000
323 1 2.879149 3.875288 0.200000 1.980000 4.000000 0.200000
324 7 0.338893 4.306325 0.200000 2.000000 3.990000 0.200000
325 7 0.621770 4.970980 0.200000 2.000000 3.990000 0.200000
326 7 1.397504 4.142732 0.200000 2.000000 3.990000 0.200000
327 1 2.676971 3.559530 0.200000 1.980000 4.000000 0.200000
328 2 1.215802 0.967463 0.200000 1.000000 1.010000 0.200000
329 2 2.513958 0.773553 0.200000 1.000000 1.010000 0.200000
330 4 1.041589 2.662571 0.200000 1.000000 1.990000 0.200000
331 4 2.151275 2.300337 0.200000 1.000000 1.990000 0.200000
332 2 1.623419 0.029216 0.200000 1.000000 1.010000 0.200000
333 8 0.806053 0.958152 0.200000 1.020000 2.000000 0.200000
334 8 0.657465 1.746620 0.200000 1.020000 2.000000 0.200000
335 4 1.543055 2.132058 0.200000 1.000000 1.990000 0.200000
336 7 0.282960 4.046774 0.200000 2.000000 3.990000 0.200000
337 5 2.637038 4.933218 0.200000 1.980000 3.000000 0.200000
338 1 2.049295 3.930934 0.200000 1.980000 4.000000 0.200000
339 2 1.158896 0.701690 0.200000 1.000000 1.010000 0.200000
340 2 1.279664 0.516951 0.200000 1.000000 1.010000 0.200000
341 7 1.801216 4.838471 0.200000 2.000000 3.990000 0.200000
342 7 0.327700 4.345448 0.200000 2.000000 3.990000 0.200000
343 7 0.477973 4.013019 0.200000 2.000000 3.990000 0.200000
344 8 0.939561 1.978421 0.200000 1.020000 2.000000 0.200000
345 3 1.367071 2.661709 0.200000 2.000000 3.010000 0.200000
346 5 2.235025 4.850210 0.200000 1.980000 3.000000 0.200000
347 2 2.876260 0.442642 0.200000 1.000000 1.010000 0.200000
348 8 0.061525 0.265367 0.200000 1.020000 2.000000 0.200000
349 5 2.693649 4.497605 0.200000 1.980000 3.000000 0.200000
350 6 0.119151 2.095719 0.200000 1.020000 1.000000 0.200000
351 5 2.335172 3.113957 0.200000 1.980000 3.000000 0.200000
352 6 0.220914 2.307445 0.200000 1.020000 1.000000 0.200000
353 4 1.226934 2.299683 0.200000 1.000000 1.990000 0.200000
354 7 1.805481 4.177663 0.200000 2.000000 3.990000 0.200000
355 7 0.213966 4.812756 0.200000 2.000000 3.990000 0.200000
356 7 1.074706 4.654271 0.200000 2.000000 3.990000 0.200000
357 7 0.575316 4.607024 0.200000 2.000000 3.990000 0.200000
358 2 2.786033 0.448275 0.200000 1.000000 1.010000 0.200000
359 5 2.462777 4.841974 0.200000 1.980000 3.000000 0.200000
360 2 1.526397 0.023633 0.200000 1.000000 1.010000 0.200000
361 2 2.246035 0.182479 0.200000 1.000000 1.010000 0.200000
362 5 2.873128 3.120298 0.200000 1.980000 3.000000 0.200000
363 7 0.025706 4.980208 0.200000 2.000000 3.990000 0.200000
364 6 0.297855 1.323119 0.200000 1.020000 1.000000 0.200000
365 2 1.142136 0.034771 0.200000 1.000000 1.010000 0.200000
366 5 2.094289 4.447554 0.200000 1.980000 3.000000 0.200000
367 7 0.035042 4.431722 0.200000 2.000000 3.990000 0.200000
368 7 0.444691 4.626893 0.200000 2.000000 3.990000 0.200000
369 5 2.027083 4.350263 0.200000 1.980000 3.000000 0.200000
370 8 0.668934 0.564556 0.200000 1.020000 2.000000 0.200000
371 7 1.358043 4.303921 0.200000 2.000000 3.990000 0.200000
372 4 1.637353 2.306249 0.200000 1.000000 1.990000 0.200000
373 5 2.570477 4.547560 0.200000 1.980000 3.000000 0.200000
374 7 1.160008 4.780554 0.200000 2.000000 3.990000 0.200000
375 8 0.522407 0.938466 0.200000 1.020000 2.000000 0.200000
376 8 0.741504 1.800821 0.200000 1.020000 2.000000 0.200000
377 7 1.560355 4.476769 0.200000 2.000000 3.990000 0.200000
378 2 2.364694 0.883282 0.200000 1.000000 1.010000 0.200000
379 8 0.975531 1.670079 0.200000 1.020000 2.000000 0.200000
380 2 1.913719 0.910014 0.200000 1.000000 1.010000 0.200000
381 8 0.730583 0.122877 0.200000 1.020000 2.000000 0.200000
382 8 0.636806 1.926408 0.200000 1.020000 2.000000 0.200000
383 2 2.333483 0.648317 0.200000 1.000000 1.010000 0.200000
384 8 0.039484 0.724731 0.200000 1.020000 2.000000 0.200000
385 1 2.235463 2.652761 0.200000 1.980000 4.000000 0.200000
386 3 0.673930 2.708715 0.200000 2.000000 3.010000 0.200000
387 6 0.706305 2.085868 0.200000 1.020000 1.000000 0.200000
388 6 0.277481 2.317210 0.200000 1.020000 1.000000 0.200000
389 5 2.823729 4.403625 0.200000 1.980000 3.000000 0.200000
390 6 0.644223 1.390023 0.200000 1.020000 1.000000 0.200000
391 4 1.345269 2.291343 0.200000 1.000000 1.990000 0.200000
392 3 0.907740 2.932683 0.200000 2.000000 3.010000 0.200000
393 1 2.627796 2.574244 0.200000 1.980000 4.000000 0.200000
394 5 2.915455 3.268799 0.200000 1.980000 3.000000 0.200000
395 7 1.933537 4.924898 0.200000 2.000000 3.990000 0.200000
396 1 2.592583 2.668558 0.200000 1.980000 4.000000 0.200000
397 2 1.752864 0.498147 0.200000 1.000000 1.010000 0.200000
398 2 1.729438 0.216895 0.200000 1.000000 1.010000 0.200000
399 1 2.361591 2.588611 0.200000 1.980000 4.000000 0.200000
400 4 2.772312 2.136476 0.200000 1.000000 1.990000 0.200000
401 2 2.352427 0.694225 0.200000 1.000000 1.010000 0.200000
402 2 1.791341 0.039400 0.200000 1.000000 1.010000 0.200000
403 4 2.457305 2.365227 0.200000 1.000000 1.990000 0.200000
404 8 0.380416 0.836205 0.200000 1.020000 2.000000 0.200000
405 5 2.327698 4.627555 0.200000 1.980000 3.000000 0.200000
406 8 0.743887 0.967820 0.200000 1.020000 2.000000 0.200000
407 8 0.094819 0.560783 0.200000 1.020000 2.000000 0.200000
408 5 2.181827 3.079472 0.200000 1.980000 3.000000 0.200000
409 1 2.818948 3.941326 0.200000 1.980000 4.000000 0.200000
410 1 2.164620 3.634231 0.200000 1.980000 4.000000 0.200000
411 8 0.462424 0.450649 0.200000 1.020000 2.000000 0.200000
412 5 2.353467 4.297207 0.200000 1.980000 3.000000 0.200000
413 8 0.968084 1.908013 0.200000 1.020000 2.000000 0.200000
414 2 2.601964 0.708982 0.200000 1.000000 1.010000 0.200000
415 5 2.798149 4.907266 0.200000 1.980000 3.000000 0.200000
416 2 2.720893 0.570996 0.200000 1.000000 1.010000 0.200000
417 8 0.000141 0.774633 0.200000 1.020000 2.000000 0.200000
418 8 0.923290 0.158266 0.200000 1.020000 2.000000 0.200000
419 8 0.801250 0.175195 0.200000 1.020000 2.000000 0.200000
420 3 1.942643 2.394346 0.200000 2.000000 3.010000 0.200000
421 1 2.139600 2.935985 0.200000 1.980000 4.000000 0.200000
422 6 0.801403 2.173700 0.200000 1.020000 1.000000 0.200000
423 3 0.942129 2.865609 0.200000 2.000000 3.010000 0.200000
424 7 0.982878 4.929732 0.200000 2.000000 3.990000 0.200000
425 8 0.247731 0.711447 0.200000 1.020000 2.000000 0.200000
426 5 2.307223 4.947707 0.200000 1.980000 3.000000 0.200000
427 3 0.433404 2.821259 0.200000 2.000000 3.010000 0.200000
428 4 2.402324 2.057756 0.200000 1.000000 1.990000 0.200000
429 3 1.797872 2.241611 0.200000 2.000000 3.010000 0.200000
430 8 0.106558 0.787773 0.200000 1.020000 2.000000 0.200000
431 5 2.192030 4.138073 0.200000 1.980000 3.000000 0.200000
432 2 2.077463 0.726865 0.200000 1.000000 1.010000 0.200000
433 7 1.139623 4.694817 0.200000 2.000000 3.990000 0.200000
434 4 1.020962 2.538086 0.200000 1.000000 1.990000 0.200000
435 7 0.120261 4.626592 0.200000 2.000000 3.990000 0.200000
436 2 1.704228 0.613320 0.200000 1.000000 1.010000 0.200000
437 8 0.202823 1.685752 0.200000 1.020000 2.000000 0.200000
438 8 0.336616 1.620482 0.200000 1.020000 2.000000 0.200000
439 6 0.318816 1.283367 0.200000 1.020000 1.000000 0.200000
440 5 2.665044 4.535232 0.200000 1.980000 3.000000 0.200000
441 1 2.148598 2.736800 0.200000 1.980000 4.000000 0.200000
442 4 2.221351 2.234380 0.200000 1.000000 1.990000 0.200000
443 4 1.124924 2.790988 0.200000 1.000000 1.990000 0.200000
444 2 2.522412 0.337311 0.200000 1.000000 1.010000 0.200000
445 8 0.019277 0.219456 0.200000 1.020000 2.000000 0.200000
446 2 2.184887 0.232563 0.200000 1.000000 1.010000 0.200000
447 8 0.507530 0.184088 0.200000 1.020000 2.000000 0.200000
448 2 2.210702 0.011046 0.200000 1.000000 1.010000 0.200000
449 1 2.294774 2.685151 0.200000 1.980000 4.000000 0.200000
450 4 1.179292 2.405621 0.200000 1.000000 1.990000 0.200000
451 4 2.784000 2.296824 0.200000 1.000000 1.990000 0.200000
452 1 2.075236 3.844021 0.200000 1.980000 4.000000 0.200000
453 1 2.968448 2.666263 0.200000 1.980000 4.000000 0.200000
454 4 1.739296 2.042085 0.200000 1.000000 1.990000 0.200000
455 7 0.090972 4.030743 0.200000 2.000000 3.990000 0.200000
456 3 1.162399 2.841897 0.200000 2.000000 3.010000 0.200000
457 8 0.166232 0.171534 0.200000 1.020000 2.000000 0.200000
458 3 0.109548 2.697920 0.200000 2.000000 3.010000 0.200000
459 6 0.988025 2.148067 0.200000 1.020000 1.000000 0.200000
460 6 0.062124 2.068659 0.200000 1.020000 1.000000 0.200000
461 7 1.689483 4.743541 0.200000 2.000000 3.990000 0.200000
462 4 1.274321 2.564707 0.200000 1.000000 1.990000 0.200000
463 4 1.493540 2.194619 0.200000 1.000000 1.990000 0.200000
464 7 0.785650 4.715407 0.200000 2.000000 3.990000 0.200000
465 6 0.259789 1.461037 0.200000 1.020000 1.000000 0.200000
466 5 2.581760 4.023203 0.200000 1.980000 3.000000 0.200000
467 3 1.790856 2.724427 0.200000 2.000000 3.010000 0.200000
468 7 0.524490 4.631469 0.200000 2.000000 3.990000 0.200000
469 2 2.923496 0.977690 0.200000 1.000000 1.010000 0.200000
470 6 0.432739 1.065611 0.200000 1.020000 1.000000 0.200000
471 3 1.839137 2.213943 0.200000 2.000000 3.010000 0.200000
472 3 1.706262 2.731110 0.200000 2.000000 3.010000 0.200000
473 7 1.596655 4.967639 0.200000 2.000000 3.990000 0.200000
474 1 2.919440 2.595239 0.200000 1.980000 4.000000 0.200000
475 1 2.979331 2.369205 0.200000 1.980000 4.000000 0.200000
476 3 1.581052 2.507399 0.200000 2.000000 3.010000 0.200000
477 6 0.139096 1.419585 0.200000 1.020000 1.000000 0.200000
478 2 2.381636 0.271070 0.200000 1.000000 1.010000 0.200000
479 7 0.143225 4.109210 0.200000 2.000000 3.990000 0.200000
480 4 1.068486 2.400967 0.200000 1.000000 1.990000 0.200000
481 8 0.428666 1.646543 0.200000 1.020000 2.000000 0.200000
482 1 2.997724 3.780714 0.200000 1.980000 4.000000 0.200000
483 7 0.155055 4.961758 0.200000 2.000000 3.990000 0.200000
484 3 0.689951 2.893512 0.200000 2.000000 3.010000 0.200000
485 1 2.108016 2.700983 0.200000 1.980000 4.000000 0.200000
486 2 1.683181 0.512214 0.200000 1.000000 1.010000 0.200000
487 8 0.429672 0.597921 0.200000 1.020000 2.000000 0.200000
488 1 2.178433 3.733176 0.200000 1.980000 4.000000 0.200000
489 7 1.642839 4.734057 0.200000 2.000000 3.990000 0.200000
490 5 2.356039 3.383142 0.200000 1.980000 3.000000 0.200000
491 5 2.458122 3.193435 0.200000 1.980000 3.000000 0.200000
492 4 2.223390 2.526694 0.200000 1.000000 1.990000 0.200000
493 4 1.500056 2.336371 0.200000 1.000000 1.990000 0.200000
494 7 0.755922 4.853463 0.200000 2.000000 3.990000 0.200000
495 7 0.705736 4.723484 0.200000 2.000000 3.990000 0.200000
496 5 2.822511 4.129473 0.200000 1.980000 3.000000 0.200000
497 3 0.774771 2.442250 0.200000 2.000000 3.010000 0.200000
498 2 2.318118 0.260052 0.200000 1.000000 1.010000 0.200000
499 5 2.535015 3.127982 0.200000 1.980000 3.000000 0.200000