ITEM: TIMESTEP
0
ITEM: NUMBER OF ATOMS
1000
ITEM: BOX BOUNDS pp pp pp
0.000000 5.000000
0.000000 5.000000
0.000000 0.400000
ITEM: ATOMS id type x y z tx ty tz
1 1 1.388874 2.769850 0.200000 1.000000 3.010000 0.200000
2 2 1.823922 2.567005 0.200000 2.000000 1.980000 0.200000
3 3 4.761149 4.580975 0.200000 3.970000 3.000000 0.200000
4 4 0.708013 3.034844 0.200000 1.030000 3.000000 0.200000
5 4 0.686158 4.020884 0.200000 1.030000 3.000000 0.200000
6 2 0.783395 2.004722 0.200000 2.000000 1.980000 0.200000
7 5 3.187761 2.621436 0.200000 3.000000 1.980000 0.200000
8 3 4.038623 4.595132 0.200000 3.970000 3.000000 0.200000
9 4 0.348776 4.746635 0.200000 1.030000 3.000000 0.200000
10 6 2.629977 0.430279 0.200000 3.020000 2.000000 0.200000
11 4 0.961069 3.316135 0.200000 1.030000 3.000000 0.200000
12 7 2.288509 0.315479 0.200000 1.980000 2.000000 0.200000
13 8 1.191400 4.853171 0.200000 1.000000 3.990000 0.200000
14 3 4.511040 4.254599 0.200000 3.970000 3.000000 0.200000
15 1 1.333329 2.698802 0.200000 1.000000 3.010000 0.200000
16 6 2.658032 0.196402 0.200000 3.020000 2.000000 0.200000
17 9 4.654049 3.604762 0.200000 3.990000 4.000000 0.200000
18 8 1.144841 4.466862 0.200000 1.000000 3.990000 0.200000
19 9 4.782341 2.943201 0.200000 3.990000 4.000000 0.200000
20 10 3.286520 4.293382 0.200000 4.000000 3.990000 0.200000
21 8 1.992183 4.073834 0.200000 1.000000 3.990000 0.200000
22 10 3.421093 4.554860 0.200000 4.000000 3.990000 0.200000
23 7 2.412453 1.079125 0.200000 1.980000 2.000000 0.200000
24 4 0.738300 4.405311 0.200000 1.030000 3.000000 0.200000
25 5 3.205403 2.159767 0.200000 3.000000 1.980000 0.200000
26 7 2.235168 1.130533 0.200000 1.980000 2.000000 0.200000
27 11 2.782219 2.082506 0.200000 4.000000 3.010000 0.200000
28 4 0.848035 4.534020 0.200000 1.030000 3.000000 0.200000
29 3 4.923758 4.675020 0.200000 3.970000 3.000000 0.200000
30 6 2.922443 1.222064 0.200000 3.020000 2.000000 0.200000
31 12 0.761949 3.660743 0.200000 1.010000 4.000000 0.200000
32 12 0.627375 3.967352 0.200000 1.010000 4.000000 0.200000
33 12 0.820510 3.725357 0.200000 1.010000 4.000000 0.200000
34 12 0.262646 2.607817 0.200000 1.010000 4.000000 0.200000
35 10 3.282818 4.837026 0.200000 4.000000 3.990000 0.200000
36 6 2.601050 0.391161 0.200000 3.020000 2.000000 0.200000
37 4 0.020808 4.615346 0.200000 1.030000 3.000000 0.200000
38 6 2.969461 0.901861 0.200000 3.020000 2.000000 0.200000
39 3 4.565133 4.098476 0.200000 3.970000 3.000000 0.200000
40 1 1.795477 2.762425 0.200000 1.000000 3.010000 0.200000
41 11 2.897150 2.262879 0.200000 4.000000 3.010000 0.200000
42 8 1.521476 4.961142 0.200000 1.000000 3.990000 0.200000
43 12 0.177105 3.739014 0.200000 1.010000 4.000000 0.200000
44 3 4.166193 4.626883 0.200000 3.970000 3.000000 0.200000
45 3 4.366357 4.155188 0.200000 3.970000 3.000000 0.200000
46 9 4.897171 3.719056 0.200000 3.990000 4.000000 0.200000
47 3 4.516832 4.917979 0.200000 3.970000 3.000000 0.200000
48 5 3.334402 2.486293 0.200000 3.000000 1.980000 0.200000
49 4 0.819840 4.150059 0.200000 1.030000 3.000000 0.200000
50 4 0.370805 3.165361 0.200000 1.030000 3.000000 0.200000
51 1 1.400210 2.730534 0.200000 1.000000 3.010000 0.200000
52 1 2.357417 2.962700 0.200000 1.000000 3.010000 0.200000
53 5 4.721590 2.254588 0.200000 3.000000 1.980000 0.200000
54 8 1.681756 4.238422 0.200000 1.000000 3.990000 0.200000
55 7 2.172566 0.016157 0.200000 1.980000 2.000000 0.200000
56 1 1.724715 2.992406 0.200000 1.000000 3.010000 0.200000
57 5 3.377380 2.414751 0.200000 3.000000 1.980000 0.200000
58 7 2.409679 1.524778 0.200000 1.980000 2.000000 0.200000
59 3 4.604572 3.423783 0.200000 3.970000 3.000000 0.200000
60 8 1.302485 4.386920 0.200000 1.000000 3.990000 0.200000
61 11 2.883453 2.966057 0.200000 4.000000 3.010000 0.200000
62 2 0.941005 2.182485 0.200000 2.000000 1.980000 0.200000
63 4 0.605716 3.428929 0.200000 1.030000 3.000000 0.200000
64 3 4.715256 4.581365 0.200000 3.970000 3.000000 0.200000
65 11 3.968284 2.740210 0.200000 4.000000 3.010000 0.200000
66 8 1.486442 4.524662 0.200000 1.000000 3.990000 0.200000
67 3 4.548215 4.369895 0.200000 3.970000 3.000000 0.200000
68 1 2.490720 2.880998 0.200000 1.000000 3.010000 0.200000
69 5 4.322895 2.461994 0.200000 3.000000 1.980000 0.200000
70 7 2.479887 1.455266 0.200000 1.980000 2.000000 0.200000
71 4 0.902106 3.420892 0.200000 1.030000 3.000000 0.200000
72 5 3.015544 2.462109 0.200000 3.000000 1.980000 0.200000
73 9 4.190668 3.621260 0.200000 3.990000 4.000000 0.200000
74 7 2.492627 0.606294 0.200000 1.980000 2.000000 0.200000
75 8 1.624035 4.659476 0.200000 1.000000 3.990000 0.200000
76 3 4.542423 3.110477 0.200000 3.970000 3.000000 0.200000
77 3 4.184139 4.090638 0.200000 3.970000 3.000000 0.200000
78 7 2.480372 1.674858 0.200000 1.980000 2.000000 0.200000
79 4 0.539241 3.236037 0.200000 1.030000 3.000000 0.200000
80 6 2.917851 1.327307 0.200000 3.020000 2.000000 0.200000
81 7 2.437134 0.786361 0.200000 1.980000 2.000000 0.200000
82 3 4.415183 3.128327 0.200000 3.970000 3.000000 0.200000
83 6 2.588574 1.039218 0.200000 3.020000 2.000000 0.200000
84 11 2.787803 2.130997 0.200000 4.000000 3.010000 0.200000
85 7 2.053940 0.027043 0.200000 1.980000 2.000000 0.200000
86 9 4.327674 3.605029 0.200000 3.990000 4.000000 0.200000
87 2 0.245812 2.245526 0.200000 2.000000 1.980000 0.200000
88 9 4.932336 3.539545 0.200000 3.990000 4.000000 0.200000
89 1 1.054415 2.369470 0.200000 1.000000 3.010000 0.200000
90 5 3.460382 2.212801 0.200000 3.000000 1.980000 0.200000
91 12 0.595556 2.948184 0.200000 1.010000 4.000000 0.200000
92 11 2.893174 2.649496 0.200000 4.000000 3.010000 0.200000
93 6 2.975226 1.809584 0.200000 3.020000 2.000000 0.200000
94 8 1.521427 4.443617 0.200000 1.000000 3.990000 0.200000
95 7 2.382923 0.849101 0.200000 1.980000 2.000000 0.200000
96 5 3.048646 2.628736 0.200000 3.000000 1.980000 0.200000
97 11 3.094627 2.980981 0.200000 4.000000 3.010000 0.200000
98 8 1.168281 4.149041 0.200000 1.000000 3.990000 0.200000
99 7 2.408667 1.127455 0.200000 1.980000 2.000000 0.200000
100 8 1.785965 4.391388 0.200000 1.000000 3.990000 0.200000
101 8 1.721255 4.074543 0.200000 1.000000 3.990000 0.200000
102 10 3.129821 4.180519 0.200000 4.000000 3.990000 0.200000
103 4 0.990103 3.062210 0.200000 1.030000 3.000000 0.200000
104 4 0.548663 3.373026 0.200000 1.030000 3.000000 0.200000
105 2 1.001762 2.005938 0.200000 2.000000 1.980000 0.200000
106 2 1.578290 2.170043 0.200000 2.000000 1.980000 0.200000
107 6 2.664230 0.773619 0.200000 3.020000 2.000000 0.200000
108 6 2.776989 0.072897 0.200000 3.020000 2.000000 0.200000
109 10 3.429932 4.048926 0.200000 4.000000 3.990000 0.200000
110 11 2.592574 2.003545 0.200000 4.000000 3.010000 0.200000
111 3 4.009483 3.389062 0.200000 3.970000 3.000000 0.200000
112 4 0.317803 3.428609 0.200000 1.030000 3.000000 0.200000
113 4 0.938082 3.094792 0.200000 1.030000 3.000000 0.200000
114 11 3.501506 2.839155 0.200000 4.000000 3.010000 0.200000
115 10 3.336703 4.395047 0.200000 4.000000 3.990000 0.200000
116 2 0.785696 2.517305 0.200000 2.000000 1.980000 0.200000
117 3 4.144787 3.378270 0.200000 3.970000 3.000000 0.200000
118 9 4.344620 2.736985 0.200000 3.990000 4.000000 0.200000
119 10 3.694797 4.662423 0.200000 4.000000 3.990000 0.200000
120 8 1.165594 4.632879 0.200000 1.000000 3.990000 0.200000
121 11 2.472034 2.762842 0.200000 4.000000 3.010000 0.200000
122 9 4.695646 3.998228 0.200000 3.990000 4.000000 0.200000
123 9 4.070694 2.972486 0.200000 3.990000 4.000000 0.200000
124 10 3.286005 4.976500 0.200000 4.000000 3.990000 0.200000
125 9 4.371547 2.945783 0.200000 3.990000 4.000000 0.200000
126 10 3.977452 4.325428 0.200000 4.000000 3.990000 0.200000
127 3 4.365107 3.322072 0.200000 3.970000 3.000000 0.200000
128 6 2.692783 0.741710 0.200000 3.020000 2.000000 0.200000
129 6 2.895108 0.164817 0.200000 3.020000 2.000000 0.200000
130 11 3.504552 2.590753 0.200000 4.000000 3.010000 0.200000
131 5 4.163045 2.575245 0.200000 3.000000 1.980000 0.200000
132 2 0.563240 2.449050 0.200000 2.000000 1.980000 0.200000
133 6 2.551745 0.242498 0.200000 3.020000 2.000000 0.200000
134 5 3.188282 2.260612 0.200000 3.000000 1.980000 0.200000
135 2 0.719910 2.065389 0.200000 2.000000 1.980000 0.200000
136 2 1.235163 2.033833 0.200000 2.000000 1.980000 0.200000
137 12 0.087283 3.587984 0.200000 1.010000 4.000000 0.200000
138 11 3.203832 2.986399 0.200000 4.000000 3.010000 0.200000
139 10 3.151216 4.617564 0.200000 4.000000 3.990000 0.200000
140 11 3.689693 2.314261 0.200000 4.000000 3.010000 0.200000
141 3 4.763311 4.744554 0.200000 3.970000 3.000000 0.200000
142 9 4.495431 3.835068 0.200000 3.990000 4.000000 0.200000
143 1 1.667846 2.683712 0.200000 1.000000 3.010000 0.200000
144 1 1.095680 2.387756 0.200000 1.000000 3.010000 0.200000
145 5 4.749102 2.330843 0.200000 3.000000 1.980000 0.200000
146 3 4.421589 4.836385 0.200000 3.970000 3.000000 0.200000
147 2 0.918827 2.290195 0.200000 2.000000 1.980000 0.200000
148 10 3.808062 4.817524 0.200000 4.000000 3.990000 0.200000
149 2 1.659229 2.011894 0.200000 2.000000 1.980000 0.200000
150 11 2.803923 2.772241 0.200000 4.000000 3.010000 0.200000
151 7 2.389804 1.800526 0.200000 1.980000 2.000000 0.200000
152 10 3.269400 4.582613 0.200000 4.000000 3.990000 0.200000
153 11 3.382770 2.981703 0.200000 4.000000 3.010000 0.200000
154 12 0.294302 2.804359 0.200000 1.010000 4.000000 0.200000
155 6 2.818087 1.213129 0.200000 3.020000 2.000000 0.200000
156 3 4.435985 4.666363 0.200000 3.970000 3.000000 0.200000
157 2 0.865323 2.239908 0.200000 2.000000 1.980000 0.200000
158 10 3.195046 4.828408 0.200000 4.000000 3.990000 0.200000
159 9 4.497156 3.738189 0.200000 3.990000 4.000000 0.200000
160 7 2.379028 1.364936 0.200000 1.980000 2.000000 0.200000
161 3 4.328395 3.115972 0.200000 3.970000 3.000000 0.200000
162 10 3.593332 4.622698 0.200000 4.000000 3.990000 0.200000
163 2 1.968730 2.482155 0.200000 2.000000 1.980000 0.200000
164 7 2.182925 1.465887 0.200000 1.980000 2.000000 0.200000
165 8 1.220344 4.561953 0.200000 1.000000 3.990000 0.200000
166 6 2.830822 0.953546 0.200000 3.020000 2.000000 0.200000
167 2 0.173582 2.159218 0.200000 2.000000 1.980000 0.200000
168 9 4.069518 3.766913 0.200000 3.990000 4.000000 0.200000
169 8 1.781915 4.989849 0.200000 1.000000 3.990000 0.200000
170 12 0.178332 2.617742 0.200000 1.010000 4.000000 0.200000
171 3 4.446717 3.233559 0.200000 3.970000 3.000000 0.200000
172 10 3.833506 4.016651 0.200000 4.000000 3.990000 0.200000
173 6 2.955553 0.267197 0.200000 3.020000 2.000000 0.200000
174 3 4.447766 4.727508 0.200000 3.970000 3.000000 0.200000
175 4 0.280111 4.626098 0.200000 1.030000 3.000000 0.200000
176 7 2.345250 1.284845 0.200000 1.980000 2.000000 0.200000
177 6 2.935056 0.844186 0.200000 3.020000 2.000000 0.200000
178 11 2.922926 2.381773 0.200000 4.000000 3.010000 0.200000
179 3 4.077745 4.630338 0.200000 3.970000 3.000000 0.200000
180 11 2.632613 2.911251 0.200000 4.000000 3.010000 0.200000
181 6 2.690876 0.083253 0.200000 3.020000 2.000000 0.200000
182 1 1.028571 2.613143 0.200000 1.000000 3.010000 0.200000
183 7 2.004927 1.535842 0.200000 1.980000 2.000000 0.200000
184 7 2.216694 1.345112 0.200000 1.980000 2.000000 0.200000
185 4 0.080887 4.225614 0.200000 1.030000 3.000000 0.200000
186 3 4.262056 3.003813 0.200000 3.970000 3.000000 0.200000
187 12 0.366178 2.571911 0.200000 1.010000 4.000000 0.200000
188 3 4.449064 3.057055 0.200000 3.970000 3.000000 0.200000
189 9 4.794784 3.683735 0.200000 3.990000 4.000000 0.200000
190 12 0.025381 2.436271 0.200000 1.010000 4.000000 0.200000
191 5 4.100731 2.537048 0.200000 3.000000 1.980000 0.200000
192 7 2.337354 0.391289 0.200000 1.980000 2.000000 0.200000
193 2 0.954918 2.418242 0.200000 2.000000 1.980000 0.200000
194 4 0.464292 4.807826 0.200000 1.030000 3.000000 0.200000
195 10 3.718635 4.612860 0.200000 4.000000 3.990000 0.200000
196 12 0.482021 3.938212 0.200000 1.010000 4.000000 0.200000
197 4 0.866503 4.688569 0.200000 1.030000 3.000000 0.200000
198 3 4.905543 4.226365 0.200000 3.970000 3.000000 0.200000
199 1 2.282571 2.171990 0.200000 1.000000 3.010000 0.200000
200 4 0.684781 3.299388 0.200000 1.030000 3.000000 0.200000
201 4 0.572295 4.403416 0.200000 1.030000 3.000000 0.200000
202 6 2.912248 1.054316 0.200000 3.020000 2.000000 0.200000
203 11 3.341628 2.644424 0.200000 4.000000 3.010000 0.200000
204 8 1.561717 4.716110 0.200000 1.000000 3.990000 0.200000
205 12 0.191324 2.574680 0.200000 1.010000 4.000000 0.200000
206 7 2.263249 0.800809 0.200000 1.980000 2.000000 0.200000
207 4 0.027174 3.248933 0.200000 1.030000 3.000000 0.200000
208 2 0.631109 2.309745 0.200000 2.000000 1.980000 0.200000
209 12 0.420923 3.901253 0.200000 1.010000 4.000000 0.200000
210 6 2.635375 0.885665 0.200000 3.020000 2.000000 0.200000
211 1 1.939981 2.980957 0.200000 1.000000 3.010000 0.200000
212 11 2.697067 2.033075 0.200000 4.000000 3.010000 0.200000
213 9 4.112129 2.888391 0.200000 3.990000 4.000000 0.200000
214 10 3.736386 4.670906 0.200000 4.000000 3.990000 0.200000
215 3 4.246358 4.157309 0.200000 3.970000 3.000000 0.200000
216 11 3.779727 2.998533 0.200000 4.000000 3.010000 0.200000
217 12 0.979489 3.887051 0.200000 1.010000 4.000000 0.200000
218 9 4.221406 3.676556 0.200000 3.990000 4.000000 0.200000
219 4 0.920126 3.333535 0.200000 1.030000 3.000000 0.200000
220 10 3.288215 4.735005 0.200000 4.000000 3.990000 0.200000
221 1 1.109588 2.534573 0.200000 1.000000 3.010000 0.200000
222 10 3.892314 4.681746 0.200000 4.000000 3.990000 0.200000
223 7 2.215213 1.893552 0.200000 1.980000 2.000000 0.200000
224 8 1.628557 4.347199 0.200000 1.000000 3.990000 0.200000
225 9 4.028945 3.748595 0.200000 3.990000 4.000000 0.200000
226 6 2.998222 0.341174 0.200000 3.020000 2.000000 0.200000
227 5 4.507743 2.160996 0.200000 3.000000 1.980000 0.200000
228 3 4.406158 3.374248 0.200000 3.970000 3.000000 0.200000
229 1 2.303258 2.358194 0.200000 1.000000 3.010000 0.200000
230 1 1.230356 2.883605 0.200000 1.000000 3.010000 0.200000
231 11 3.747216 2.400778 0.200000 4.000000 3.010000 0.200000
232 7 2.429329 0.962429 0.200000 1.980000 2.000000 0.200000
233 4 0.014139 4.503859 0.200000 1.030000 3.000000 0.200000
234 8 1.443758 4.043084 0.200000 1.000000 3.990000 0.200000
235 9 4.798582 3.875288 0.200000 3.990000 4.000000 0.200000
236 4 0.564821 4.306325 0.200000 1.030000 3.000000 0.200000
237 8 1.036283 4.970980 0.200000 1.000000 3.990000 0.200000
238 9 4.461619 3.559530 0.200000 3.990000 4.000000 0.200000
239 7 2.026337 0.967463 0.200000 1.980000 2.000000 0.200000
240 2 1.735982 2.662571 0.200000 2.000000 1.980000 0.200000
241 5 3.585458 2.300337 0.200000 3.000000 1.980000 0.200000
242 6 2.705698 0.029216 0.200000 3.020000 2.000000 0.200000
243 11 2.571758 2.132058 0.200000 4.000000 3.010000 0.200000
244 4 0.471599 4.046774 0.200000 1.030000 3.000000 0.200000
245 3 4.395063 4.933218 0.200000 3.970000 3.000000 0.200000
246 6 2.606304 1.421400 0.200000 3.020000 2.000000 0.200000
247 7 2.132773 0.516951 0.200000 1.980000 2.000000 0.200000
248 10 3.002027 4.838471 0.200000 4.000000 3.990000 0.200000
249 4 0.546167 4.345448 0.200000 1.030000 3.000000 0.200000
250 4 0.796622 4.013019 0.200000 1.030000 3.000000 0.200000
251 1 2.278452 2.661709 0.200000 1.000000 3.010000 0.200000
252 10 3.725041 4.850210 0.200000 4.000000 3.990000 0.200000
253 3 4.489416 4.497605 0.200000 3.970000 3.000000 0.200000
254 2 0.198585 2.095719 0.200000 2.000000 1.980000 0.200000
255 2 0.368189 2.307445 0.200000 2.000000 1.980000 0.200000
256 1 2.044890 2.299683 0.200000 1.000000 3.010000 0.200000
257 10 3.009134 4.177663 0.200000 4.000000 3.990000 0.200000
258 6 2.816634 1.011162 0.200000 3.020000 2.000000 0.200000
259 4 0.356610 4.812756 0.200000 1.030000 3.000000 0.200000
260 7 2.375819 1.922545 0.200000 1.980000 2.000000 0.200000
261 8 1.791177 4.654271 0.200000 1.000000 3.990000 0.200000
262 3 4.504482 4.378022 0.200000 3.970000 3.000000 0.200000
263 4 0.958859 4.607024 0.200000 1.030000 3.000000 0.200000
264 3 4.104628 4.841974 0.200000 3.970000 3.000000 0.200000
265 6 2.543994 0.023633 0.200000 3.020000 2.000000 0.200000
266 3 4.788547 3.120298 0.200000 3.970000 3.000000 0.200000
267 4 0.042843 4.980208 0.200000 1.030000 3.000000 0.200000
268 12 0.930143 3.648508 0.200000 1.010000 4.000000 0.200000
269 10 3.490481 4.447554 0.200000 4.000000 3.990000 0.200000
270 4 0.058403 4.431722 0.200000 1.030000 3.000000 0.200000
271 4 0.883502 3.195993 0.200000 1.030000 3.000000 0.200000
272 4 0.741151 4.626893 0.200000 1.030000 3.000000 0.200000
273 10 3.378472 4.350263 0.200000 4.000000 3.990000 0.200000
274 4 0.776009 4.143108 0.200000 1.030000 3.000000 0.200000
275 11 2.728922 2.306249 0.200000 4.000000 3.010000 0.200000
276 3 4.284129 4.547560 0.200000 3.970000 3.000000 0.200000
277 8 1.933346 4.780554 0.200000 1.000000 3.990000 0.200000
278 3 4.586974 3.139399 0.200000 3.970000 3.000000 0.200000
279 6 2.586954 1.893996 0.200000 3.020000 2.000000 0.200000
280 4 0.089988 3.250328 0.200000 1.030000 3.000000 0.200000
281 5 3.619876 2.321964 0.200000 3.000000 1.980000 0.200000
282 11 3.725772 2.652761 0.200000 4.000000 3.010000 0.200000
283 6 2.618727 1.234949 0.200000 3.020000 2.000000 0.200000
284 1 1.123216 2.708715 0.200000 1.000000 3.010000 0.200000
285 3 4.485277 4.220565 0.200000 3.970000 3.000000 0.200000
286 2 1.177175 2.085868 0.200000 2.000000 1.980000 0.200000
287 11 3.697334 2.384250 0.200000 4.000000 3.010000 0.200000
288 2 0.462469 2.317210 0.200000 2.000000 1.980000 0.200000
289 3 4.706214 4.403625 0.200000 3.970000 3.000000 0.200000
290 1 2.242114 2.291343 0.200000 1.000000 3.010000 0.200000
291 1 1.512901 2.932683 0.200000 1.000000 3.010000 0.200000
292 9 4.379660 2.574244 0.200000 3.990000 4.000000 0.200000
293 3 4.859091 3.268799 0.200000 3.970000 3.000000 0.200000
294 10 3.222561 4.924898 0.200000 4.000000 3.990000 0.200000
295 6 2.577659 1.612256 0.200000 3.020000 2.000000 0.200000
296 9 4.320971 2.668558 0.200000 3.990000 4.000000 0.200000
297 6 2.921441 0.498147 0.200000 3.020000 2.000000 0.200000
298 6 2.882397 0.216895 0.200000 3.020000 2.000000 0.200000
299 11 3.935984 2.588611 0.200000 4.000000 3.010000 0.200000
300 5 4.620520 2.136476 0.200000 3.000000 1.980000 0.200000
301 6 2.985568 0.039400 0.200000 3.020000 2.000000 0.200000
302 5 4.095508 2.365227 0.200000 3.000000 1.980000 0.200000
303 10 3.879497 4.627555 0.200000 4.000000 3.990000 0.200000
304 6 2.784539 1.457156 0.200000 3.020000 2.000000 0.200000
305 9 4.698247 3.941326 0.200000 3.990000 4.000000 0.200000
306 10 3.922445 4.297207 0.200000 4.000000 3.990000 0.200000
307 3 4.663581 4.907266 0.200000 3.970000 3.000000 0.200000
308 5 3.237738 2.394346 0.200000 3.000000 1.980000 0.200000
309 11 3.566000 2.935985 0.200000 4.000000 3.010000 0.200000
310 2 1.335672 2.173700 0.200000 2.000000 1.980000 0.200000
311 1 1.570216 2.865609 0.200000 1.000000 3.010000 0.200000
312 2 0.401920 2.340923 0.200000 2.000000 1.980000 0.200000
313 10 3.316258 4.324365 0.200000 4.000000 3.990000 0.200000
314 8 1.638130 4.929732 0.200000 1.000000 3.990000 0.200000
315 6 2.924989 0.302294 0.200000 3.020000 2.000000 0.200000
316 10 3.845372 4.947707 0.200000 4.000000 3.990000 0.200000
317 12 0.722340 2.821259 0.200000 1.010000 4.000000 0.200000
318 5 4.003873 2.057756 0.200000 3.000000 1.980000 0.200000
319 11 2.996453 2.241611 0.200000 4.000000 3.010000 0.200000
320 10 3.653383 4.138073 0.200000 4.000000 3.990000 0.200000
321 8 1.899372 4.694817 0.200000 1.000000 3.990000 0.200000
322 2 1.701603 2.538086 0.200000 2.000000 1.980000 0.200000
323 4 0.200435 4.626592 0.200000 1.030000 3.000000 0.200000
324 6 2.840380 0.613320 0.200000 3.020000 2.000000 0.200000
325 3 4.441740 4.535232 0.200000 3.970000 3.000000 0.200000
326 5 3.341122 2.438194 0.200000 3.000000 1.980000 0.200000
327 11 3.580997 2.736800 0.200000 4.000000 3.010000 0.200000
328 5 3.702252 2.234380 0.200000 3.000000 1.980000 0.200000
329 2 1.874873 2.790988 0.200000 2.000000 1.980000 0.200000
330 6 2.690277 1.246310 0.200000 3.020000 2.000000 0.200000
331 11 3.824623 2.685151 0.200000 4.000000 3.010000 0.200000
332 2 1.965486 2.405621 0.200000 2.000000 1.980000 0.200000
333 5 4.640001 2.296824 0.200000 3.000000 1.980000 0.200000
334 6 2.634135 1.976580 0.200000 3.020000 2.000000 0.200000
335 9 4.947414 2.666263 0.200000 3.990000 4.000000 0.200000
336 11 2.898826 2.042085 0.200000 4.000000 3.010000 0.200000
337 12 0.070751 3.744710 0.200000 1.010000 4.000000 0.200000
338 4 0.151620 4.030743 0.200000 1.030000 3.000000 0.200000
339 2 1.937332 2.841897 0.200000 2.000000 1.980000 0.200000
340 12 0.182580 2.697920 0.200000 1.010000 4.000000 0.200000
341 2 1.646708 2.148067 0.200000 2.000000 1.980000 0.200000
342 2 0.103540 2.068659 0.200000 2.000000 1.980000 0.200000
343 1 2.123869 2.564707 0.200000 1.000000 3.010000 0.200000
344 11 2.489234 2.194619 0.200000 4.000000 3.010000 0.200000
345 8 1.309417 4.715407 0.200000 1.000000 3.990000 0.200000
346 3 4.302934 4.023203 0.200000 3.970000 3.000000 0.200000
347 11 2.984761 2.724427 0.200000 4.000000 3.010000 0.200000
348 4 0.874150 4.631469 0.200000 1.030000 3.000000 0.200000
349 5 3.065229 2.213943 0.200000 3.000000 1.980000 0.200000
350 11 2.843770 2.731110 0.200000 4.000000 3.010000 0.200000
351 7 2.162258 1.605233 0.200000 1.980000 2.000000 0.200000
352 9 4.865733 2.595239 0.200000 3.990000 4.000000 0.200000
353 9 4.965552 2.369205 0.200000 3.990000 4.000000 0.200000
354 11 2.635087 2.507399 0.200000 4.000000 3.010000 0.200000
355 4 0.238709 4.109210 0.200000 1.030000 3.000000 0.200000
356 2 1.780810 2.400967 0.200000 2.000000 1.980000 0.200000
357 9 4.996206 3.780714 0.200000 3.990000 4.000000 0.200000
358 4 0.258426 4.961758 0.200000 1.030000 3.000000 0.200000
359 1 1.149919 2.893512 0.200000 1.000000 3.010000 0.200000
360 11 3.513360 2.700983 0.200000 4.000000 3.010000 0.200000
361 6 2.805302 0.512214 0.200000 3.020000 2.000000 0.200000
362 7 2.353370 1.058021 0.200000 1.980000 2.000000 0.200000
363 6 2.953247 1.567800 0.200000 3.020000 2.000000 0.200000
364 7 2.233223 1.639025 0.200000 1.980000 2.000000 0.200000
365 4 0.078496 3.045897 0.200000 1.030000 3.000000 0.200000
366 3 4.096870 3.193435 0.200000 3.970000 3.000000 0.200000
367 11 3.705650 2.526694 0.200000 4.000000 3.010000 0.200000
368 1 2.500093 2.336371 0.200000 1.000000 3.010000 0.200000
369 8 1.259870 4.853463 0.200000 1.000000 3.990000 0.200000
370 8 1.176226 4.723484 0.200000 1.000000 3.990000 0.200000
371 3 4.704185 4.129473 0.200000 3.970000 3.000000 0.200000
372 1 1.291284 2.442250 0.200000 1.000000 3.010000 0.200000
373 3 4.225025 3.127982 0.200000 3.970000 3.000000 0.200000
374 9 4.461589 3.644513 0.200000 3.990000 4.000000 0.200000
375 4 0.546686 3.488705 0.200000 1.030000 3.000000 0.200000
376 8 1.134057 4.076468 0.200000 1.000000 3.990000 0.200000
377 5 3.280492 2.069470 0.200000 3.000000 1.980000 0.200000
378 4 0.494288 4.175251 0.200000 1.030000 3.000000 0.200000
379 2 0.612445 2.418712 0.200000 2.000000 1.980000 0.200000
380 3 4.656690 4.500813 0.200000 3.970000 3.000000 0.200000
381 1 1.633400 2.663233 0.200000 1.000000 3.010000 0.200000
382 6 2.897469 0.456571 0.200000 3.020000 2.000000 0.200000
383 3 4.631822 4.222410 0.200000 3.970000 3.000000 0.200000
384 4 0.749410 4.031609 0.200000 1.030000 3.000000 0.200000
385 3 4.105644 4.464076 0.200000 3.970000 3.000000 0.200000
386 4 0.900482 4.314589 0.200000 1.030000 3.000000 0.200000
387 9 4.760349 3.797951 0.200000 3.990000 4.000000 0.200000
388 8 1.338036 4.310734 0.200000 1.000000 3.990000 0.200000
389 2 1.282917 2.087447 0.200000 2.000000 1.980000 0.200000
390 10 3.342343 4.683768 0.200000 4.000000 3.990000 0.200000
391 5 3.240834 2.447987 0.200000 3.000000 1.980000 0.200000
392 3 4.147843 4.581252 0.200000 3.970000 3.000000 0.200000
393 9 4.597407 3.496721 0.200000 3.990000 4.000000 0.200000
394 4 0.952507 4.114375 0.200000 1.030000 3.000000 0.200000
395 3 4.297395 4.240116 0.200000 3.970000 3.000000 0.200000
396 7 2.351624 1.435905 0.200000 1.980000 2.000000 0.200000
397 3 4.161124 3.252106 0.200000 3.970000 3.000000 0.200000
398 12 0.750494 3.921473 0.200000 1.010000 4.000000 0.200000
399 7 2.050056 0.521655 0.200000 1.980000 2.000000 0.200000
400 4 0.590632 4.239765 0.200000 1.030000 3.000000 0.200000
401 10 3.350120 4.135278 0.200000 4.000000 3.990000 0.200000
402 8 1.583265 4.655071 0.200000 1.000000 3.990000 0.200000
403 6 2.979813 0.829409 0.200000 3.020000 2.000000 0.200000
404 5 4.883989 2.277208 0.200000 3.000000 1.980000 0.200000
405 2 0.069525 2.235613 0.200000 2.000000 1.980000 0.200000
406 10 3.713113 4.230649 0.200000 4.000000 3.990000 0.200000
407 4 0.487719 4.463607 0.200000 1.030000 3.000000 0.200000
408 5 3.152121 2.537775 0.200000 3.000000 1.980000 0.200000
409 8 1.777540 4.909899 0.200000 1.000000 3.990000 0.200000
410 1 2.303841 2.285853 0.200000 1.000000 3.010000 0.200000
411 2 1.219525 2.180743 0.200000 2.000000 1.980000 0.200000
412 10 3.055467 4.199339 0.200000 4.000000 3.990000 0.200000
413 5 3.010152 2.939456 0.200000 3.000000 1.980000 0.200000
414 7 2.310325 0.662788 0.200000 1.980000 2.000000 0.200000
415 10 3.200563 4.638529 0.200000 4.000000 3.990000 0.200000
416 3 4.205200 4.978102 0.200000 3.970000 3.000000 0.200000
417 3 4.548428 4.430155 0.200000 3.970000 3.000000 0.200000
418 4 0.448045 3.437728 0.200000 1.030000 3.000000 0.200000
419 8 1.660910 4.813185 0.200000 1.000000 3.990000 0.200000
420 9 4.422717 3.971235 0.200000 3.990000 4.000000 0.200000
421 9 4.433682 3.676535 0.200000 3.990000 4.000000 0.200000
422 10 3.069036 4.950823 0.200000 4.000000 3.990000 0.200000
423 10 3.388550 4.227633 0.200000 4.000000 3.990000 0.200000
424 4 0.013113 3.436469 0.200000 1.030000 3.000000 0.200000
425 12 0.926824 2.769623 0.200000 1.010000 4.000000 0.200000
426 7 2.017703 0.564940 0.200000 1.980000 2.000000 0.200000
427 2 0.501382 2.083530 0.200000 2.000000 1.980000 0.200000
428 3 4.530632 4.215895 0.200000 3.970000 3.000000 0.200000
429 4 0.722412 3.185270 0.200000 1.030000 3.000000 0.200000
430 7 2.308529 1.524643 0.200000 1.980000 2.000000 0.200000
431 12 0.503547 2.895878 0.200000 1.010000 4.000000 0.200000
432 7 2.301547 1.430372 0.200000 1.980000 2.000000 0.200000
433 4 0.665501 4.319250 0.200000 1.030000 3.000000 0.200000
434 2 1.995311 2.668182 0.200000 2.000000 1.980000 0.200000
435 11 2.997863 2.373436 0.200000 4.000000 3.010000 0.200000
436 10 3.227532 4.594962 0.200000 4.000000 3.990000 0.200000
437 11 2.731242 2.758164 0.200000 4.000000 3.010000 0.200000
438 9 4.718262 3.863219 0.200000 3.990000 4.000000 0.200000
439 2 1.652181 2.424597 0.200000 2.000000 1.980000 0.200000
440 8 1.020928 4.186359 0.200000 1.000000 3.990000 0.200000
441 4 0.735311 4.248461 0.200000 1.030000 3.000000 0.200000
442 1 2.006625 2.592178 0.200000 1.000000 3.010000 0.200000
443 10 3.881871 4.165308 0.200000 4.000000 3.990000 0.200000
444 7 2.029586 1.634340 0.200000 1.980000 2.000000 0.200000
445 4 0.077219 4.699393 0.200000 1.030000 3.000000 0.200000
446 3 4.237616 4.795481 0.200000 3.970000 3.000000 0.200000
447 10 3.562612 4.706555 0.200000 4.000000 3.990000 0.200000
448 12 0.316964 2.839084 0.200000 1.010000 4.000000 0.200000
449 7 2.025443 0.389685 0.200000 1.980000 2.000000 0.200000
450 11 3.856238 2.592978 0.200000 4.000000 3.010000 0.200000
451 2 0.543038 2.280812 0.200000 2.000000 1.980000 0.200000
452 9 4.941753 2.572624 0.200000 3.990000 4.000000 0.200000
453 12 0.206380 3.992372 0.200000 1.010000 4.000000 0.200000
454 10 3.360085 4.443997 0.200000 4.000000 3.990000 0.200000
455 9 4.150551 3.805143 0.200000 3.990000 4.000000 0.200000
456 4 0.474615 4.990709 0.200000 1.030000 3.000000 0.200000
457 6 2.829794 0.848741 0.200000 3.020000 2.000000 0.200000
458 1 1.238426 2.715824 0.200000 1.000000 3.010000 0.200000
459 4 0.308803 4.060943 0.200000 1.030000 3.000000 0.200000
460 9 4.249280 2.833639 0.200000 3.990000 4.000000 0.200000
461 5 4.756335 2.225393 0.200000 3.000000 1.980000 0.200000
462 2 1.842276 2.000739 0.200000 2.000000 1.980000 0.200000
463 11 3.852984 2.316891 0.200000 4.000000 3.010000 0.200000
464 10 3.108470 4.821242 0.200000 4.000000 3.990000 0.200000
465 5 4.676479 2.134518 0.200000 3.000000 1.980000 0.200000
466 6 2.953765 0.338480 0.200000 3.020000 2.000000 0.200000
467 11 3.913154 2.538874 0.200000 4.000000 3.010000 0.200000
468 4 0.998086 3.386709 0.200000 1.030000 3.000000 0.200000
469 8 1.220347 4.244561 0.200000 1.000000 3.990000 0.200000
470 4 0.790076 4.466591 0.200000 1.030000 3.000000 0.200000
471 8 1.030236 4.829411 0.200000 1.000000 3.990000 0.200000
472 1 1.191124 2.250583 0.200000 1.000000 3.010000 0.200000
473 2 0.866864 2.046063 0.200000 2.000000 1.980000 0.200000
474 6 2.598198 0.963668 0.200000 3.020000 2.000000 0.200000
475 7 2.132116 0.235329 0.200000 1.980000 2.000000 0.200000
476 8 1.534512 4.138526 0.200000 1.000000 3.990000 0.200000
477 4 0.259344 4.385495 0.200000 1.030000 3.000000 0.200000
478 12 0.329253 3.938646 0.200000 1.010000 4.000000 0.200000
479 1 1.189229 2.822421 0.200000 1.000000 3.010000 0.200000
480 4 0.996000 4.416495 0.200000 1.030000 3.000000 0.200000
481 6 2.644460 1.794738 0.200000 3.020000 2.000000 0.200000
482 11 2.758405 2.973896 0.200000 4.000000 3.010000 0.200000
483 9 4.901575 2.863815 0.200000 3.990000 4.000000 0.200000
484 5 4.079956 2.578563 0.200000 3.000000 1.980000 0.200000
485 11 2.524780 2.828405 0.200000 4.000000 3.010000 0.200000
486 9 4.098940 3.714009 0.200000 3.990000 4.000000 0.200000
487 10 3.130504 4.017172 0.200000 4.000000 3.990000 0.200000
488 12 0.693337 3.751686 0.200000 1.010000 4.000000 0.200000
489 12 0.546423 3.720746 0.200000 1.010000 4.000000 0.200000
490 2 1.694643 2.211389 0.200000 2.000000 1.980000 0.200000
491 12 0.985808 2.876014 0.200000 1.010000 4.000000 0.200000
492 6 2.781300 1.663531 0.200000 3.020000 2.000000 0.200000
493 2 0.249665 2.116890 0.200000 2.000000 1.980000 0.200000
494 11 2.609172 2.774445 0.200000 4.000000 3.010000 0.200000
495 9 4.613292 2.496388 0.200000 3.990000 4.000000 0.200000
496 11 3.370644 2.863675 0.200000 4.000000 3.010000 0.200000
497 12 0.834185 3.917067 0.200000 1.010000 4.000000 0.200000